10
119
0.000000 0.000000 -1.000000 1.843360
2.718858 1.239291 1.843360
3.666481 -5.270626 1.843360
4.040950 -3.822160 1.843360
9.492200 -6.294600 1.843360
8.199000 -2.157410 1.843360
11.170196 -1.504448 1.843360
11.218300 -1.541470 1.843360
11.820400 -1.615670 1.843360
12.617600 -1.367200 1.843360
13.892900 -1.076610 1.843360
14.474200 -0.826421 1.843360
14.914400 -0.705008 1.843360
15.387600 -0.518527 1.843360
15.866600 -0.499172 1.843360
16.597400 -0.156704 1.843360
17.673500 0.002287 1.843360
18.073900 0.196826 1.843360
18.382500 0.441643 1.843360
19.549100 0.708482 1.843360
20.017300 0.942726 1.843360
20.457000 1.051840 1.843360
20.878800 1.222430 1.843360
21.888300 1.332330 1.843360
22.125900 1.459760 1.843360
22.921800 1.652410 1.843360
23.449700 1.980900 1.843360
24.059700 2.147960 1.843360
25.303100 2.448000 1.843360
26.406700 2.844750 1.843360
26.905700 2.843260 1.843360
27.726700 3.136380 1.843360
28.394600 3.274530 1.843360
28.836700 3.416510 1.843360
29.368100 3.496090 1.843360
29.769100 3.636910 1.843360
29.960800 3.629720 1.843360
30.826100 4.078660 1.843360
31.034500 4.093930 1.843360
31.485700 4.372600 1.843360
32.507000 4.669700 1.843360
33.049700 4.632940 1.843360
33.477500 4.943760 1.843360
34.336900 5.068310 1.843360
34.546600 5.144620 1.843360
35.008100 5.219470 1.843360
35.352700 5.418030 1.843360
35.871600 5.434220 1.843360
36.380500 5.572840 1.843360
37.064800 5.852250 1.843360
37.316200 5.855130 1.843360
38.180300 6.170770 1.843360
38.835800 6.429400 1.843360
39.520000 6.769670 1.843360
40.053400 6.861400 1.843360
40.298000 6.993420 1.843360
41.445100 7.241170 1.843360
41.716300 7.256160 1.843360
42.333600 7.596690 1.843360
43.588800 7.758860 1.843360
44.064300 7.780870 1.843360
44.617300 8.043060 1.843360
45.112900 8.106380 1.843360
45.317000 8.239360 1.843360
45.787100 8.326660 1.843360
46.382800 8.529320 1.843360
46.804600 8.561760 1.843360
47.229800 8.801570 1.843360
48.271900 9.164110 1.843360
49.277900 9.392170 1.843360
49.444600 9.568840 1.843360
49.975700 9.877490 1.843360
50.499200 10.309900 1.843360
50.796700 10.773600 1.843360
51.153500 11.183100 1.843360
51.276100 11.390700 1.843360
51.393700 11.753400 1.843360
51.377300 11.917500 1.843360
51.023300 11.929800 1.843360
49.963300 12.134600 1.843360
51.174400 12.691800 1.843360
46.758668 13.358494 1.843360
46.500000 13.823200 1.843360
46.155800 14.778900 1.843360
46.221855 16.083160 1.843360
38.374400 13.841600 1.843360
37.895400 13.403400 1.843360
37.430300 13.209000 1.843360
37.080100 13.192400 1.843360
36.615100 13.019400 1.843360
36.188700 12.953000 1.843360
35.609300 12.979900 1.843360
35.340700 12.840500 1.843360
35.218568 12.961000 1.843360
31.891700 11.950100 1.843360
31.699900 11.636400 1.843360
31.822700 11.073900 1.843360
31.907100 10.433100 1.843360
33.370572 10.630439 1.843360
34.317593 7.309942 1.843360
34.317593 7.309942 1.843360
15.904100 1.737160 1.843360
17.427700 3.035250 1.843360
16.719700 2.873430 1.843360
16.214200 2.549080 1.843360
15.560000 2.398350 1.843360
15.181900 2.387670 1.843360
15.359800 1.586150 1.843360
12.867247 0.975511 1.843360
12.518700 1.372880 1.843360
12.161800 1.368450 1.843360
11.379900 1.079380 1.843360
11.326200 0.925318 1.843360
11.218043 0.381841 1.843360
8.555754 -0.383977 1.843360
8.555754 -0.383977 1.843360
8.038751 1.866978 1.843360
3.733110 0.466276 1.843360
3.608910 0.065624 1.843360
3.081680 -1.234290 1.843360
58
0.000000 0.000000 -1.000000 1.362160
-6.134000 34.920000 1.362160
-1.865000 35.730000 1.362160
-1.380486 33.716774 1.362160
0.488092 34.327100 1.362160
0.601536 34.197700 1.362160
1.254680 34.174000 1.362160
2.165190 34.469000 1.362160
2.830263 32.680992 1.362160
-0.935169 31.618974 1.362160
-0.759010 29.227300 1.362160
-0.456044 29.004100 1.362160
-0.429783 28.732200 1.362160
-0.156728 28.666600 1.362160
6.933716 4.688024 1.362160
6.933716 4.688024 1.362160
10.775093 5.717586 1.362160
11.206122 3.861110 1.362160
7.813934 2.845796 1.362160
6.948890 2.734930 1.362160
6.220400 2.351930 1.362160
5.938129 2.223548 1.362160
2.718858 1.239291 1.362160
3.948630 0.711196 1.362160
3.515960 0.529925 1.362160
3.309120 0.382059 1.362160
3.005450 -0.055898 1.362160
2.947930 -0.168003 1.362160
2.277110 -0.833331 1.362160
2.332550 -1.325890 1.362160
2.111880 -1.660080 1.362160
1.613890 -1.724200 1.362160
1.084820 -2.560250 1.362160
-2.590441 -3.235644 1.362160
-2.831730 -3.474570 1.362160
-3.458470 -3.586570 1.362160
-4.357530 -3.921160 1.362160
-4.638720 -3.922070 1.362160
-5.409480 -4.206660 1.362160
-5.909440 -4.327760 1.362160
-6.821430 -4.616720 1.362160
-7.129160 -4.816170 1.362160
-7.772230 -5.029110 1.362160
-7.975870 -4.939420 1.362160
-8.127310 -4.636340 1.362160
-8.125440 -4.444040 1.362160
-8.276590 -3.935210 1.362160
-8.933471 -3.592099 1.362160
-2.240821 -1.541922 1.362160
-2.240821 -1.541922 1.362160
-3.359323 1.579552 1.362160
-3.359323 1.579552 1.362160
4.010192 3.611090 1.362160
4.010192 3.611090 1.362160
-3.052580 27.884900 1.362160
-2.780600 28.198900 1.362160
-3.303790 28.562000 1.362160
-3.445550 28.725200 1.362160
-4.683826 33.118773 1.362160
77
0.000000 0.000000 -1.000000 2.509780
45.367700 3.799960 2.509780
45.105100 4.499800 2.509780
45.015900 4.796330 2.509780
45.608800 4.659940 2.509780
44.515100 8.238700 2.509780
44.022100 7.847100 2.509780
43.396100 7.656400 2.509780
42.842000 7.354440 2.509780
42.232500 7.292070 2.509780
40.440700 6.727710 2.509780
39.897000 6.608260 2.509780
39.350900 6.390740 2.509780
39.165700 6.370730 2.509780
38.791100 6.214530 2.509780
38.330900 6.199540 2.509780
37.289700 5.839650 2.509780
36.898700 5.641140 2.509780
35.826600 5.284780 2.509780
35.580700 5.281160 2.509780
34.848200 5.043610 2.509780
34.613300 4.919450 2.509780
33.428400 4.713520 2.509780
32.098800 4.296970 2.509780
31.500700 4.198430 2.509780
30.627600 3.870050 2.509780
30.064900 3.766400 2.509780
29.944500 3.678260 2.509780
29.060200 3.471090 2.509780
28.542200 3.245060 2.509780
27.846600 3.046760 2.509780
27.730200 2.968030 2.509780
27.096900 2.901950 2.509780
26.175400 2.547760 2.509780
25.807800 2.464840 2.509780
25.664600 2.469500 2.509780
25.278900 2.268310 2.509780
24.890500 2.169320 2.509780
24.745900 2.071000 2.509780
24.071600 1.956500 2.509780
23.594500 1.776150 2.509780
23.177800 1.716300 2.509780
22.634600 1.523390 2.509780
22.352400 1.460450 2.509780
22.020800 1.305760 2.509780
20.962500 1.080350 2.509780
19.315900 0.537474 2.509780
18.838400 0.402334 2.509780
18.613100 0.262329 2.509780
17.762500 0.030001 2.509780
16.640600 -0.267180 2.509780
16.376000 -0.249770 2.509780
15.723600 -0.478983 2.509780
15.195200 -0.707253 2.509780
13.916000 -1.043240 2.509780
12.858100 -1.378970 2.509780
12.305500 -1.664520 2.509780
11.170196 -1.504448 2.509780
4.040950 -3.822160 2.509780
3.874760 -4.068580 2.509780
3.691180 -4.443690 2.509780
3.038730 -5.496730 2.509780
1.341857 -5.939622 2.509780
2.150361 -8.786763 2.509780
3.154060 -8.793560 2.509780
3.758820 -9.426380 2.509780
4.072560 -10.047700 2.509780
4.272840 -10.626300 2.509780
4.776640 -11.039800 2.509780
5.279480 -10.978200 2.509780
5.670080 -10.736200 2.509780
5.497970 -10.228500 2.509780
5.865470 -8.868410 2.509780
6.048150 -8.824910 2.509780
6.303830 -8.659380 2.509780
6.344530 -8.425680 2.509780
6.426106 -7.490920 2.509780
42.643000 3.043930 2.509780
35
0.000000 0.000000 -1.000000 2.593280
-14.201700 38.653100 2.593280
-14.404800 39.993000 2.593280
-15.170400 39.792400 2.593280
-15.380400 39.810800 2.593280
-15.464300 39.669700 2.593280
-16.804200 39.506800 2.593280
-17.499300 39.511200 2.593280
-17.500800 39.313500 2.593280
-18.027400 38.240400 2.593280
-17.898900 37.640600 2.593280
-19.009900 36.806600 2.593280
-19.572000 36.731500 2.593280
-20.037600 36.413200 2.593280
-20.112100 36.200700 2.593280
-20.061200 35.973000 2.593280
-20.618500 35.714200 2.593280
-17.124700 22.351700 2.593280
-16.584500 22.878400 2.593280
-16.572800 22.431100 2.593280
-15.953700 22.208300 2.593280
-15.493800 22.323400 2.593280
-14.881600 22.232800 2.593280
-13.840100 22.225300 2.593280
-10.643100 23.174100 2.593280
-11.117400 24.222700 2.593280
-11.058200 24.518000 2.593280
-10.919900 25.047300 2.593280
-12.305892 30.738306 2.593280
-12.380200 31.023700 2.593280
-12.437900 31.275600 2.593280
-12.677100 31.724800 2.593280
-12.804800 32.279500 2.593280
-13.013600 32.864100 2.593280
-12.847088 32.960461 2.593280
-14.492900 39.718200 2.593280
35
0.000000 0.000000 -1.000000 2.273710
16.693800 7.338840 2.273710
16.570300 7.826030 2.273710
16.725000 8.636450 2.273710
16.271800 9.195880 2.273710
16.294400 9.839210 2.273710
16.408400 9.980970 2.273710
16.745700 10.109500 2.273710
17.081200 10.112300 2.273710
17.897200 10.325000 2.273710
18.270800 10.608800 2.273710
18.482500 10.933300 2.273710
25.539489 13.070894 2.273710
29.637457 14.100817 2.273710
29.889592 10.975610 2.273710
27.720500 5.795290 2.273710
26.925800 5.938170 2.273710
26.670100 5.842460 2.273710
26.328200 5.544730 2.273710
25.426200 5.438560 2.273710
25.026200 5.222230 2.273710
24.670700 5.156340 2.273710
23.661300 4.830780 2.273710
23.083000 4.913270 2.273710
22.598700 4.755590 2.273710
22.498900 4.671180 2.273710
21.991100 4.615140 2.273710
21.458900 4.480570 2.273710
21.236000 4.374510 2.273710
20.509800 4.280090 2.273710
19.897000 4.064650 2.273710
19.800800 4.076560 2.273710
18.627400 3.632670 2.273710
18.451500 3.629570 2.273710
17.943800 2.982990 2.273710
15.958807 9.858488 2.273710
39
0.000000 0.000000 -1.000000 2.590110
52.581500 18.053800 2.590110
52.553347 18.009901 2.590110
48.274000 16.684300 2.590110
48.397300 16.085600 2.590110
48.842600 15.399400 2.590110
49.048100 13.987800 2.590110
49.718700 13.556900 2.590110
50.016000 13.515500 2.590110
46.758668 13.358494 2.590110
51.174400 12.691800 2.590110
51.228400 11.778600 2.590110
51.230000 10.959900 2.590110
51.007700 10.573900 2.590110
50.405000 9.965230 2.590110
50.169200 9.653350 2.590110
49.349900 9.208980 2.590110
48.315400 8.798280 2.590110
48.018900 8.739140 2.590110
47.492300 8.771280 2.590110
47.080800 8.710330 2.590110
46.810100 8.321370 2.590110
46.330600 8.077460 2.590110
45.280700 7.738880 2.590110
44.515100 8.238700 2.590110
45.608800 4.659940 2.590110
45.838700 4.267900 2.590110
50.599600 5.597240 2.590110
50.945100 5.737170 2.590110
51.133400 5.186530 2.590110
54.499300 6.312620 2.590110
54.625000 6.736860 2.590110
54.955400 7.069640 2.590110
55.259500 7.276470 2.590110
55.458700 7.398890 2.590110
53.869000 12.531700 2.590110
53.785400 12.666700 2.590110
53.653000 12.746400 2.590110
53.525300 12.986400 2.590110
52.553347 18.009901 2.590110
25
0.000000 0.000000 -1.000000 2.264040
-7.869910 -5.681710 2.264040
-8.933471 -3.592099 2.264040
-7.372090 -10.370000 2.264040
-7.281700 -10.575300 2.264040
-6.467250 -11.056800 2.264040
-5.875420 -11.066500 2.264040
-5.625090 -11.153800 2.264040
-5.186900 -11.574900 2.264040
-5.142640 -11.349500 2.264040
-2.839660 -10.658000 2.264040
-2.440170 -10.224900 2.264040
-2.093060 -10.025700 2.264040
-1.567980 -9.818450 2.264040
-1.293560 -9.795710 2.264040
-1.236970 -9.645620 2.264040
-0.697296 -9.397170 2.264040
-2.590441 -3.235644 2.264040
-3.435030 -3.680060 2.264040
-4.031110 -3.813750 2.264040
-4.419370 -3.872660 2.264040
-4.840990 -4.164010 2.264040
-5.329650 -4.276320 2.264040
-5.979130 -4.620290 2.264040
-6.470540 -4.748020 2.264040
-7.863650 -5.347680 2.264040
27
0.000000 0.000000 -1.000000 1.333340
48.277400 15.206500 1.333340
48.121300 14.893000 1.333340
47.572800 14.668300 1.333340
47.064700 14.396600 1.333340
46.319700 14.185000 1.333340
38.374400 13.841600 1.333340
46.221855 16.083160 1.333340
41.103388 33.776182 1.333340
41.103388 33.776182 1.333340
32.821200 31.441700 1.333340
29.930000 30.960000 1.333340
28.998500 35.916400 1.333340
29.399200 36.823400 1.333340
28.920200 37.801900 1.333340
29.569300 37.716600 1.333340
30.103100 36.959200 1.333340
30.879000 36.070500 1.333340
31.492200 35.732100 1.333340
31.814000 35.724500 1.333340
32.485400 35.835400 1.333340
32.906865 32.998071 1.333340
40.291400 34.692400 1.333340
40.630900 34.670900 1.333340
40.847300 34.883200 1.333340
40.856900 35.183100 1.333340
42.480000 35.630000 1.333340
48.291300 15.421200 1.333340
12
0.000000 0.000000 -1.000000 2.389120
15.958807 9.858488 2.389120
10.770467 8.705804 2.389120
12.867247 0.975511 2.389120
13.793000 2.046720 2.389120
14.161100 2.005030 2.389120
14.613900 2.317860 2.389120
15.876400 2.732760 2.389120
16.367300 2.734030 2.389120
16.738400 2.860120 2.389120
17.143600 3.151790 2.389120
17.943800 2.982990 2.389120
15.958807 9.858488 2.389120
17
0.000000 0.000000 -1.000000 1.464600
32.704900 10.186200 1.464600
31.841900 10.907600 1.464600
31.612400 11.443200 1.464600
29.889592 10.975610 1.464600
30.427600 10.421600 1.464600
29.924200 9.280900 1.464600
29.346100 9.266160 1.464600
28.973800 9.203380 1.464600
28.543100 9.063050 1.464600
28.037900 9.073750 1.464600
27.483600 8.832780 1.464600
25.539489 13.070894 1.464600
27.720500 5.795290 1.464600
34.317593 7.309942 1.464600
34.317593 7.309942 1.464600
33.370572 10.630439 1.464600
32.884000 10.184800 1.464600
