99
202
0.000000 0.000000 1.000000 1.374570
54.499300 6.312620 -1.374570
51.133400 5.186530 -1.374570
51.122400 5.659650 -1.374570
50.640800 5.684230 -1.374570
50.599600 5.597240 -1.374570
45.838692 4.267927 -1.374570
45.645400 4.536110 -1.374570
44.261600 4.074890 -1.374570
43.509500 3.731460 -1.374570
42.754900 3.736990 -1.374570
42.643000 3.043930 -1.374570
6.426105 -7.490920 -1.374570
6.453092 -7.601719 -1.374570
2.150361 -8.786763 -1.374570
1.341857 -5.939622 -1.374570
3.666481 -5.270626 -1.374570
3.666481 -5.270626 -1.374570
2.718858 1.239291 -1.374570
2.103480 -2.071050 -1.374570
1.580450 -2.177800 -1.374570
1.084820 -2.560250 -1.374570
-2.590441 -3.235644 -1.374570
-2.590441 -3.235644 -1.374570
-0.697296 -9.397170 -1.374570
-1.189000 -9.645820 -1.374570
-1.460490 -9.792400 -1.374570
-1.921070 -10.174900 -1.374570
-2.229840 -10.192900 -1.374570
-2.777660 -9.983600 -1.374570
-3.475030 -9.877720 -1.374570
-3.975080 -10.015000 -1.374570
-4.248150 -10.231000 -1.374570
-4.620380 -10.376300 -1.374570
-5.231050 -10.477000 -1.374570
-6.045540 -10.723100 -1.374570
-6.331090 -10.472400 -1.374570
-6.655610 -9.857580 -1.374570
-6.818700 -9.383520 -1.374570
-6.823610 -9.091830 -1.374570
-7.014490 -8.563510 -1.374570
-7.090370 -8.121050 -1.374570
-7.372090 -10.370000 -1.374570
-8.933471 -3.592099 -1.374570
-2.240821 -1.541922 -1.374570
-2.240821 -1.541922 -1.374570
-3.359323 1.579552 -1.374570
4.010192 3.611090 -1.374570
4.010192 3.611090 -1.374570
-3.052580 27.884900 -1.374570
-2.901620 28.480300 -1.374570
-3.350620 28.723100 -1.374570
-3.445550 28.725200 -1.374570
-4.683826 33.118773 -1.374570
-12.305892 30.738306 -1.374570
-13.014600 30.169300 -1.374570
-13.330200 29.649000 -1.374570
-12.675700 28.667600 -1.374570
-12.305892 30.738306 -1.374570
-10.919900 25.047300 -1.374570
-12.168500 25.751200 -1.374570
-12.154300 25.684300 -1.374570
-12.775100 25.105600 -1.374570
-12.853300 24.779600 -1.374570
-12.845800 24.508600 -1.374570
-12.608200 23.847200 -1.374570
-13.140600 23.168800 -1.374570
-13.806800 23.439600 -1.374570
-13.872400 23.531900 -1.374570
-14.013700 24.343500 -1.374570
-15.332200 24.794600 -1.374570
-16.075100 24.561300 -1.374570
-16.345000 24.378100 -1.374570
-16.710500 24.304300 -1.374570
-16.870000 24.216300 -1.374570
-16.875100 24.518100 -1.374570
-16.383500 25.174000 -1.374570
-15.320067 25.394105 -1.374570
-16.036100 28.250200 -1.374570
-16.847600 28.254400 -1.374570
-18.592110 27.964003 -1.374570
-18.629987 28.108871 -1.374570
-18.688316 28.331958 -1.374570
-18.993085 29.497584 -1.374570
-17.788700 29.566600 -1.374570
-16.903100 29.505800 -1.374570
-16.332300 29.571400 -1.374570
-15.548900 29.966700 -1.374570
-17.124400 35.420700 -1.374570
-18.001500 35.679200 -1.374570
-18.379500 35.480900 -1.374570
-18.671900 35.229600 -1.374570
-19.672400 35.895000 -1.374570
-19.604700 36.014300 -1.374570
-18.771200 36.427000 -1.374570
-18.468300 36.433300 -1.374570
-18.242300 36.494200 -1.374570
-17.668400 37.315200 -1.374570
-17.655400 37.769400 -1.374570
-17.533600 37.829500 -1.374570
-16.769000 37.976100 -1.374570
-16.730400 37.521200 -1.374570
-16.570000 36.928900 -1.374570
-15.820700 36.226900 -1.374570
-15.571600 36.230700 -1.374570
-14.767300 36.599600 -1.374570
-14.492900 39.718200 -1.374570
-12.847088 32.960461 -1.374570
-6.134030 34.923600 -1.374570
-5.919060 34.787600 -1.374570
-5.281660 35.783000 -1.374570
-5.385750 36.198800 -1.374570
-4.686730 36.710300 -1.374570
-4.376920 37.292600 -1.374570
-4.341980 38.127800 -1.374570
-3.764070 38.033200 -1.374570
-3.406850 38.039100 -1.374570
-3.386990 37.569200 -1.374570
-2.226870 36.857200 -1.374570
-2.188090 36.305200 -1.374570
-1.865400 35.731000 -1.374570
-1.380486 33.716774 -1.374570
0.488092 34.327100 -1.374570
0.569187 34.125100 -1.374570
1.085400 34.259600 -1.374570
1.374760 34.254400 -1.374570
2.165190 34.469000 -1.374570
2.830263 32.680992 -1.374570
-0.935169 31.618974 -1.374570
-0.759010 29.227300 -1.374570
-0.269386 28.906500 -1.374570
-0.156728 28.666600 -1.374570
6.933716 4.688024 -1.374570
6.933716 4.688024 -1.374570
11.525768 5.921201 -1.374570
12.867247 0.975511 -1.374570
10.770467 8.705804 -1.374570
15.958807 9.858488 -1.374570
16.035344 9.593379 -1.374570
16.663300 9.946470 -1.374570
17.148600 10.093400 -1.374570
17.895500 10.601900 -1.374570
18.482500 10.933300 -1.374570
25.610815 12.832960 -1.374570
25.539489 13.070894 -1.374570
29.637457 14.100817 -1.374570
28.203100 12.928700 -1.374570
28.691700 13.041900 -1.374570
28.749162 13.877566 -1.374570
29.637457 14.100817 -1.374570
29.889592 10.975610 -1.374570
29.889592 10.975610 -1.374570
31.612400 11.443200 -1.374570
31.891700 11.950100 -1.374570
35.218568 12.961000 -1.374570
35.218568 12.961000 -1.374570
32.956100 20.850400 -1.374570
33.183000 20.850700 -1.374570
33.037200 21.054200 -1.374570
32.425600 21.403500 -1.374570
32.253600 21.401100 -1.374570
31.816800 21.551000 -1.374570
31.170700 24.200200 -1.374570
31.891000 24.751400 -1.374570
31.768300 25.066100 -1.374570
30.302900 30.355100 -1.374570
30.210200 30.919800 -1.374570
29.933300 30.955700 -1.374570
28.998500 35.916400 -1.374570
29.311500 36.007500 -1.374570
28.914700 36.799400 -1.374570
27.937600 37.370200 -1.374570
28.331100 37.723900 -1.374570
28.925200 37.887300 -1.374570
29.490100 37.960500 -1.374570
30.131900 37.027000 -1.374570
30.599900 36.724800 -1.374570
31.031400 36.288000 -1.374570
31.820800 35.869900 -1.374570
32.485400 35.835400 -1.374570
32.906865 32.998071 -1.374570
40.291400 34.692400 -1.374570
40.547800 34.828000 -1.374570
40.727000 35.069100 -1.374570
40.856900 35.183100 -1.374570
42.480000 35.630000 -1.374570
48.878106 13.469453 -1.374570
46.221855 16.083160 -1.374570
41.103388 33.776182 -1.374570
32.820000 31.440000 -1.374570
33.570000 29.910000 -1.374570
38.370000 13.840000 -1.374570
46.221855 16.083160 -1.374570
48.878106 13.469453 -1.374570
47.974464 16.597610 -1.374570
52.553347 18.009901 -1.374570
53.525300 12.986400 -1.374570
53.869000 12.531700 -1.374570
55.458700 7.398890 -1.374570
55.300900 7.283910 -1.374570
54.939600 6.939020 -1.374570
54.581100 6.428770 -1.374570
54.217081 6.218201 -1.374570
119
0.000000 0.000000 -1.000000 1.843360
2.718858 1.239291 1.843360
3.666481 -5.270626 1.843360
4.040947 -3.822150 1.843360
9.492200 -6.294600 1.843360
8.291019 -2.440461 1.843360
11.170196 -1.504448 1.843360
11.184131 -1.551574 1.843360
11.252721 -1.783532 1.843360
12.617600 -1.367200 1.843360
13.892900 -1.076610 1.843360
14.474200 -0.826421 1.843360
14.914400 -0.705008 1.843360
15.387600 -0.518527 1.843360
15.866600 -0.499172 1.843360
16.597400 -0.156704 1.843360
17.673500 0.002287 1.843360
18.073900 0.196826 1.843360
18.382500 0.441643 1.843360
19.549100 0.708482 1.843360
20.017300 0.942726 1.843360
20.457000 1.051840 1.843360
20.878800 1.222430 1.843360
21.888300 1.332330 1.843360
22.125900 1.459760 1.843360
22.921800 1.652410 1.843360
23.449700 1.980900 1.843360
24.059700 2.147960 1.843360
25.303100 2.448000 1.843360
26.406700 2.844750 1.843360
26.905700 2.843260 1.843360
27.726700 3.136380 1.843360
28.394600 3.274530 1.843360
28.836700 3.416510 1.843360
29.368100 3.496090 1.843360
29.769100 3.636910 1.843360
29.960800 3.629720 1.843360
30.826100 4.078660 1.843360
31.034500 4.093930 1.843360
31.485700 4.372600 1.843360
32.507000 4.669700 1.843360
33.049700 4.632940 1.843360
33.477500 4.943760 1.843360
34.336900 5.068310 1.843360
34.546600 5.144620 1.843360
35.008100 5.219470 1.843360
35.352700 5.418030 1.843360
35.871600 5.434220 1.843360
36.380500 5.572840 1.843360
37.064800 5.852250 1.843360
37.316200 5.855130 1.843360
38.180300 6.170770 1.843360
38.835800 6.429400 1.843360
39.520000 6.769670 1.843360
40.053400 6.861400 1.843360
40.298000 6.993420 1.843360
41.445100 7.241170 1.843360
41.716300 7.256160 1.843360
42.333600 7.596690 1.843360
43.588800 7.758860 1.843360
44.064300 7.780870 1.843360
44.559504 8.027328 1.843360
44.577643 7.960688 1.843360
44.558022 8.032774 1.843360
45.787100 8.326660 1.843360
46.382800 8.529320 1.843360
46.804600 8.561760 1.843360
47.229800 8.801570 1.843360
48.271900 9.164110 1.843360
49.277900 9.392170 1.843360
49.444600 9.568840 1.843360
49.975700 9.877490 1.843360
50.499200 10.309900 1.843360
50.796700 10.773600 1.843360
51.153500 11.183100 1.843360
51.276100 11.390700 1.843360
51.393700 11.753400 1.843360
51.377300 11.917500 1.843360
51.023300 11.929800 1.843360
49.963300 12.134600 1.843360
51.174400 12.691800 1.843360
46.565293 14.092359 1.843360
46.437920 14.058796 1.843360
46.155800 14.778900 1.843360
46.221855 16.083160 1.843360
38.374400 13.841600 1.843360
37.895400 13.403400 1.843360
37.430300 13.209000 1.843360
37.080100 13.192400 1.843360
36.615100 13.019400 1.843360
36.188700 12.953000 1.843360
35.609300 12.979900 1.843360
35.340700 12.840500 1.843360
35.218568 12.961000 1.843360
31.891711 11.950064 1.843360
31.699900 11.636400 1.843360
31.822700 11.073900 1.843360
32.050056 10.086224 1.843360
33.370572 10.630439 1.843360
34.317593 7.309942 1.843360
34.317593 7.309942 1.843360
15.904105 1.737143 1.843360
17.659759 2.268487 1.843360
16.966302 2.058614 1.843360
16.413292 1.891247 1.843360
15.560000 2.398350 1.843360
15.181900 2.387670 1.843360
15.359799 1.586153 1.843360
12.867247 0.975511 1.843360
12.518700 1.372880 1.843360
12.161800 1.368450 1.843360
11.379900 1.079380 1.843360
11.326200 0.925318 1.843360
11.218043 0.381841 1.843360
8.555754 -0.383977 1.843360
8.555754 -0.383977 1.843360
8.038751 1.866978 1.843360
3.733109 0.466278 1.843360
2.904627 -0.036896 1.843360
3.078985 -1.234682 1.843360
58
0.000000 0.000000 -1.000000 1.362160
-6.134000 34.920000 1.362160
-1.865152 35.729963 1.362160
-1.380486 33.716774 1.362160
0.488092 34.327100 1.362160
0.601536 34.197700 1.362160
1.254680 34.174000 1.362160
2.165145 34.468983 1.362160
2.830263 32.680992 1.362160
-0.935169 31.618974 1.362160
-0.759010 29.227300 1.362160
-0.456044 29.004100 1.362160
-0.429783 28.732200 1.362160
-0.156728 28.666600 1.362160
6.933716 4.688024 1.362160
6.933716 4.688024 1.362160
10.775093 5.717586 1.362160
11.206122 3.861110 1.362160
7.813934 2.845796 1.362160
6.948890 2.734930 1.362160
6.220400 2.351930 1.362160
5.938129 2.223548 1.362160
2.718858 1.239291 1.362160
3.948630 0.711196 1.362160
3.515960 0.529925 1.362160
3.309120 0.382059 1.362160
3.005450 -0.055898 1.362160
2.947930 -0.168003 1.362160
2.277110 -0.833331 1.362160
2.332550 -1.325890 1.362160
2.111880 -1.660080 1.362160
1.613890 -1.724200 1.362160
1.084820 -2.560250 1.362160
-2.590441 -3.235644 1.362160
-2.831730 -3.474570 1.362160
-3.458470 -3.586570 1.362160
-4.357530 -3.921160 1.362160
-4.638720 -3.922070 1.362160
-5.409480 -4.206660 1.362160
-5.909440 -4.327760 1.362160
-6.821430 -4.616720 1.362160
-7.129160 -4.816170 1.362160
-7.772230 -5.029110 1.362160
-7.975870 -4.939420 1.362160
-8.127310 -4.636340 1.362160
-8.125440 -4.444040 1.362160
-8.276590 -3.935210 1.362160
-8.933471 -3.592099 1.362160
-2.240821 -1.541922 1.362160
-2.240821 -1.541922 1.362160
-3.359323 1.579552 1.362160
-3.359323 1.579552 1.362160
4.010192 3.611090 1.362160
4.010192 3.611090 1.362160
-3.052580 27.884900 1.362160
-2.780600 28.198900 1.362160
-3.303790 28.562000 1.362160
-3.445550 28.725200 1.362160
-4.683826 33.118773 1.362160
77
0.000000 0.000000 -1.000000 2.509780
45.367700 3.799960 2.509780
45.105100 4.499800 2.509780
45.015900 4.796330 2.509780
45.608800 4.659940 2.509780
44.515100 8.238700 2.509780
44.022100 7.847100 2.509780
43.396100 7.656400 2.509780
42.842000 7.354440 2.509780
42.232500 7.292070 2.509780
40.440700 6.727710 2.509780
39.897000 6.608260 2.509780
39.350900 6.390740 2.509780
39.165700 6.370730 2.509780
38.791100 6.214530 2.509780
38.330900 6.199540 2.509780
37.289700 5.839650 2.509780
36.898700 5.641140 2.509780
35.826600 5.284780 2.509780
35.580700 5.281160 2.509780
34.848200 5.043610 2.509780
34.613300 4.919450 2.509780
33.428400 4.713520 2.509780
32.098800 4.296970 2.509780
31.500700 4.198430 2.509780
30.627600 3.870050 2.509780
30.064900 3.766400 2.509780
29.944500 3.678260 2.509780
29.060200 3.471090 2.509780
28.542200 3.245060 2.509780
27.846600 3.046760 2.509780
27.730200 2.968030 2.509780
27.096900 2.901950 2.509780
26.175400 2.547760 2.509780
25.807800 2.464840 2.509780
25.664600 2.469500 2.509780
25.278900 2.268310 2.509780
24.890500 2.169320 2.509780
24.745900 2.071000 2.509780
24.071600 1.956500 2.509780
23.594500 1.776150 2.509780
23.177800 1.716300 2.509780
22.634600 1.523390 2.509780
22.352400 1.460450 2.509780
22.020800 1.305760 2.509780
20.962500 1.080350 2.509780
19.315900 0.537474 2.509780
18.838400 0.402334 2.509780
18.613100 0.262329 2.509780
17.762500 0.030001 2.509780
16.640600 -0.267180 2.509780
16.376000 -0.249770 2.509780
15.723600 -0.478983 2.509780
15.195200 -0.707253 2.509780
13.916000 -1.043240 2.509780
12.858100 -1.378970 2.509780
12.305500 -1.664520 2.509780
11.170196 -1.504448 2.509780
4.040950 -3.822160 2.509780
3.874760 -4.068580 2.509780
3.691180 -4.443690 2.509780
3.026652 -5.454760 2.509780
1.341857 -5.939622 2.509780
2.150361 -8.786763 2.509780
3.154060 -8.793560 2.509780
3.758820 -9.426380 2.509780
4.072560 -10.047700 2.509780
4.272840 -10.626300 2.509780
4.776640 -11.039800 2.509780
5.279480 -10.978200 2.509780
5.670080 -10.736200 2.509780
5.497970 -10.228500 2.509780
5.865470 -8.868410 2.509780
6.048150 -8.824910 2.509780
6.043595 -7.714501 2.509780
6.141252 -7.687605 2.509780
6.426106 -7.490920 2.509780
42.643000 3.043930 2.509780
35
0.000000 0.000000 -1.000000 2.593280
-14.231725 38.645788 2.593280
-14.404800 39.993000 2.593280
-15.170400 39.792400 2.593280
-15.380400 39.810800 2.593280
-15.464300 39.669700 2.593280
-16.804200 39.506800 2.593280
-17.499300 39.511200 2.593280
-17.500800 39.313500 2.593280
-18.027400 38.240400 2.593280
-17.898900 37.640600 2.593280
-19.009900 36.806600 2.593280
-19.572000 36.731500 2.593280
-20.037600 36.413200 2.593280
-20.112100 36.200700 2.593280
-20.061200 35.973000 2.593280
-20.618500 35.714200 2.593280
-17.124700 22.351700 2.593280
-16.584500 22.878400 2.593280
-16.572800 22.431100 2.593280
-15.953700 22.208300 2.593280
-15.493800 22.323400 2.593280
-14.881600 22.232800 2.593280
-13.840100 22.225300 2.593280
-10.643100 23.174100 2.593280
-11.117400 24.222700 2.593280
-11.058200 24.518000 2.593280
-10.919874 25.047306 2.593280
-12.305892 30.738306 2.593280
-12.380200 31.023700 2.593280
-12.437900 31.275600 2.593280
-12.677100 31.724800 2.593280
-12.804800 32.279500 2.593280
-13.013600 32.864100 2.593280
-12.847088 32.960461 2.593280
-14.492906 39.718199 2.593280
35
0.000000 0.000000 -1.000000 2.273710
16.686811 7.336822 2.273710
16.547479 7.819442 2.273710
16.343413 8.526286 2.273710
16.159465 9.163449 2.273710
15.989763 9.751261 2.273710
16.408400 9.980970 2.273710
16.745700 10.109500 2.273710
17.081200 10.112300 2.273710
17.897200 10.325000 2.273710
18.270800 10.608800 2.273710
18.482500 10.933300 2.273710
25.539489 13.070894 2.273710
29.637457 14.100817 2.273710
29.889592 10.975610 2.273710
27.720515 5.795294 2.273710
27.615689 6.144980 2.273710
27.620931 6.127493 2.273710
26.328200 5.544730 2.273710
25.426200 5.438560 2.273710
25.026200 5.222230 2.273710
24.670700 5.156340 2.273710
23.661300 4.830780 2.273710
23.083000 4.913270 2.273710
22.598700 4.755590 2.273710
22.498900 4.671180 2.273710
21.991100 4.615140 2.273710
21.458900 4.480570 2.273710
21.236000 4.374510 2.273710
20.509800 4.280090 2.273710
19.897000 4.064650 2.273710
19.800800 4.076560 2.273710
18.627400 3.632670 2.273710
18.451500 3.629570 2.273710
17.943765 2.982980 2.273710
15.958807 9.858488 2.273710
39
0.000000 0.000000 -1.000000 2.590110
52.581500 18.053800 2.590110
52.553347 18.009901 2.590110
48.274017 16.684245 2.590110
48.397300 16.085600 2.590110
48.842600 15.399400 2.590110
49.048100 13.987800 2.590110
49.718700 13.556900 2.590110
50.016000 13.515500 2.590110
46.758668 13.358494 2.590110
51.174400 12.691798 2.590110
51.228400 11.778600 2.590110
51.230000 10.959900 2.590110
51.007700 10.573900 2.590110
50.405000 9.965230 2.590110
50.169200 9.653350 2.590110
49.349900 9.208980 2.590110
48.315400 8.798280 2.590110
48.018900 8.739140 2.590110
47.492300 8.771280 2.590110
47.080800 8.710330 2.590110
46.810100 8.321370 2.590110
46.330600 8.077460 2.590110
44.720262 7.567615 2.590110
44.515100 8.238700 2.590110
45.608821 4.659946 2.590110
45.838692 4.267928 2.590110
50.599590 5.597275 2.590110
50.945100 5.737170 2.590110
51.133400 5.186530 2.590110
54.499300 6.312620 2.590110
54.625000 6.736860 2.590110
54.955400 7.069640 2.590110
55.259500 7.276470 2.590110
55.458727 7.398898 2.590110
53.869000 12.531700 2.590110
53.785400 12.666700 2.590110
53.653000 12.746400 2.590110
53.525319 12.986404 2.590110
52.553347 18.009901 2.590110
25
0.000000 0.000000 -1.000000 2.264040
-8.422763 -5.809067 2.264040
-8.933471 -3.592099 2.264040
-7.372090 -10.370000 2.264040
-7.281700 -10.575300 2.264040
-6.467250 -11.056800 2.264040
-5.875420 -11.066500 2.264040
-5.625090 -11.153800 2.264040
-5.186900 -11.574900 2.264040
-5.142640 -11.349500 2.264040
-2.839660 -10.658000 2.264040
-2.440170 -10.224900 2.264040
-2.093060 -10.025700 2.264040
-1.567980 -9.818450 2.264040
-1.293560 -9.795710 2.264040
-1.236970 -9.645620 2.264040
-0.697295 -9.397170 2.264040
-2.590441 -3.235644 2.264040
-3.435030 -3.680060 2.264040
-4.031110 -3.813750 2.264040
-4.419370 -3.872660 2.264040
-4.840990 -4.164010 2.264040
-5.329650 -4.276320 2.264040
-5.979130 -4.620290 2.264040
-6.470540 -4.748020 2.264040
-8.495518 -5.493239 2.264040
27
0.000000 0.000000 -1.000000 1.333340
48.368700 15.232874 1.333340
48.440264 14.985140 1.333340
48.457929 14.923990 1.333340
47.064700 14.396600 1.333340
46.319700 14.185000 1.333340
38.374400 13.841600 1.333340
46.221855 16.083160 1.333340
41.103388 33.776182 1.333340
41.103388 33.776182 1.333340
32.821216 31.441644 1.333340
29.930000 30.960000 1.333340
28.998500 35.916400 1.333340
29.399200 36.823400 1.333340
28.920200 37.801900 1.333340
29.569300 37.716600 1.333340
30.103100 36.959200 1.333340
30.879000 36.070500 1.333340
31.492200 35.732100 1.333340
31.814000 35.724500 1.333340
32.485394 35.835399 1.333340
32.906865 32.998071 1.333340
40.291400 34.692400 1.333340
40.630900 34.670900 1.333340
40.847300 34.883200 1.333340
40.856900 35.183100 1.333340
42.480000 35.630000 1.333340
48.312527 15.427332 1.333340
12
0.000000 0.000000 -1.000000 2.389120
15.958807 9.858488 2.389120
10.770467 8.705804 2.389120
12.867247 0.975511 2.389120
13.793000 2.046720 2.389120
14.161100 2.005030 2.389120
14.613900 2.317860 2.389120
15.876400 2.732760 2.389120
16.367300 2.734030 2.389120
16.738400 2.860120 2.389120
17.143600 3.151790 2.389120
17.943800 2.982990 2.389120
15.958807 9.858488 2.389120
17
0.000000 0.000000 -1.000000 1.464600
32.704900 10.186200 1.464600
31.841900 10.907600 1.464600
31.612400 11.443200 1.464600
29.889592 10.975610 1.464600
30.427600 10.421600 1.464600
29.924200 9.280900 1.464600
29.346100 9.266160 1.464600
28.973800 9.203380 1.464600
28.543100 9.063050 1.464600
28.037900 9.073750 1.464600
27.483600 8.832780 1.464600
25.539489 13.070894 1.464600
27.720500 5.795290 1.464600
34.317593 7.309942 1.464600
34.317593 7.309942 1.464600
33.370572 10.630439 1.464600
32.884000 10.184800 1.464600
9
0.000000 0.000000 1.000000 -1.569360
33.570000 29.910000 1.569360
38.370000 13.840000 1.569360
35.218568 12.961000 1.569360
32.960000 20.850000 1.569360
31.820000 21.550000 1.569360
31.170000 24.200000 1.569360
31.770000 25.070000 1.569360
29.930000 30.960000 1.569360
32.820000 31.440000 1.569360
4
0.000000 0.000000 1.000000 -1.553820
-4.683826 33.118773 1.553820
-6.134030 34.923600 1.553820
-12.847088 32.960461 1.553820
-12.305892 30.738306 1.553820
4
0.000000 0.000000 1.000000 -2.320310
10.770467 8.705804 2.320310
8.038751 1.866978 2.320310
8.555754 -0.383977 2.320310
12.867247 0.975511 2.320310
2
0.000000 0.000000 1.000000 -1.543220
32.956044 20.850384 1.543220
35.218568 12.961000 1.543220
4
0.279305 -0.960202 0.000000 -8.987640
6.426106 -7.490920 -1.374570
6.426106 -7.490920 2.509780
42.643000 3.043904 2.509780
42.643000 3.043930 -1.374570
4
0.289672 -0.957126 0.000000 -2.944310
15.904100 1.737160 -1.090460
15.904100 1.737141 1.843360
34.317593 7.309942 1.843360
34.317593 7.309942 -1.090460
4
0.286741 -0.958008 0.000000 0.485720
7.813934 2.845796 -1.055360
7.813934 2.845796 1.362160
11.206122 3.861110 1.362160
11.206122 3.861110 -1.055360
4
0.298112 -0.954531 0.000000 33.009200
-12.305892 30.738306 -1.374570
-12.305892 30.738306 1.553820
-4.683826 33.118773 1.553820
-4.683826 33.118773 -1.374570
4
0.265755 -0.964041 0.000000 2.415510
-3.359323 1.579552 -1.374570
-3.359323 1.579552 1.362160
4.010192 3.611090 1.362160
4.010192 3.611090 -1.374570
4
0.309170 -0.951007 0.000000 -4.884230
3.482079 -4.003836 1.543220
3.482079 -4.003836 1.843360
11.170196 -1.504448 1.843360
11.170196 -1.504448 1.543220
4
0.254804 -0.966993 0.000000 1.762190
42.861459 13.116394 -1.059520
42.861459 13.116394 1.843360
46.975343 14.200408 1.843360
46.975343 14.200408 -1.059520
4
0.280672 -0.959804 0.000000 35.241400
-12.847088 32.960461 -1.374570
-12.847088 32.960461 1.553820
-6.134030 34.923536 1.553820
-6.134030 34.923600 -1.374570
4
0.292898 -0.956144 0.000000 -0.817968
-8.933471 -3.592099 -1.374570
-8.933471 -3.592099 1.362160
-2.240821 -1.541922 1.362160
-2.240821 -1.541922 -1.374570
4
0.290744 -0.956801 0.000000 2.161510
31.891700 11.950100 -1.374570
31.891700 11.950061 1.843360
35.218568 12.961000 1.843360
35.218568 12.961000 -1.374570
4
0.276444 -0.961030 0.000000 -2.734200
8.555754 -0.383977 -1.235690
8.555754 -0.383977 1.843360
11.218042 0.381841 1.843360
11.218042 0.381841 -1.235690
4
0.271303 -0.962494 0.000000 21.357900
32.821200 31.441700 -1.045230
32.821200 31.441640 1.333340
41.103388 33.776182 1.333340
41.103388 33.776182 -1.045230
4
0.274656 -0.961543 0.000000 2.769540
38.374400 13.841600 -1.102600
38.374400 13.841606 1.843360
46.221855 16.083160 1.843360
46.221855 16.083160 -1.102600
4
0.257510 -0.966276 0.000000 5.805140
18.482500 10.933300 -1.374570
18.482500 10.933283 2.273710
25.610815 12.832960 2.273710
25.610815 12.832960 -1.374570
4
0.276562 -0.960996 0.000000 -6.079060
1.341857 -5.939622 -1.374570
1.341857 -5.939622 2.509780
3.666481 -5.270626 2.509780
3.666481 -5.270626 -1.374570
4
0.258882 -0.965909 0.000000 2.733190
6.933716 4.688024 -1.374570
6.933716 4.688024 1.362160
10.775093 5.717586 1.362160
10.775093 5.717586 -1.374570
12
0.251197 -0.967936 0.000000 1.746660
31.446326 9.965414 -1.019590
29.764300 9.528900 -1.019590
29.767600 9.529760 -0.469558
29.737600 9.521970 0.675713
29.090700 9.354100 1.433910
27.807900 9.021180 1.574470
26.829592 8.767287 1.400950
26.829592 8.767287 1.543220
26.829592 8.767287 1.543220
30.200300 9.642060 1.543220
31.446326 9.965414 1.543220
31.446326 9.965414 -0.417580
4
0.271454 -0.962452 0.000000 30.685600
-0.935182 31.618970 -1.374570
-0.935182 31.618970 1.362160
2.830263 32.680992 1.362160
2.830263 32.680992 -1.374570
4
0.292379 -0.956303 0.000000 0.390201
2.718858 1.239291 -1.048770
2.718858 1.239291 1.362160
5.938129 2.223548 1.362160
5.938129 2.223548 -1.048770
4
-0.149290 -0.988794 0.000000 20.189400
46.758668 13.358494 -1.033690
46.758668 13.358494 2.590110
51.174400 12.691798 2.590110
51.174400 12.691800 -1.033690
4
0.223630 -0.974674 0.000000 24.803400
32.906865 32.998071 -1.374570
32.906865 32.998071 1.333340
40.291400 34.692385 1.333340
40.291400 34.692400 -1.374570
4
0.180740 -0.983531 0.000000 -2.714160
-2.590441 -3.235644 -1.374570
-2.590441 -3.235644 1.362160
1.084820 -2.560254 1.362160
1.084820 -2.560250 -1.374570
4
0.237950 -0.971277 0.000000 -2.114270
12.867247 0.975511 -1.005800
12.867247 0.975511 1.843360
15.359800 1.586153 1.843360
15.359800 1.586150 -1.005800
4
0.295908 -0.955216 0.000000 1.652390
47.976098 16.591955 -1.374570
47.976098 16.591955 2.590110
52.553347 18.009901 2.590110
52.553347 18.009901 -1.374570
4
0.317276 -0.948333 0.000000 -11.304800
51.133400 5.186530 -1.374570
51.133400 5.186575 2.590110
54.499300 6.312677 2.590110
54.499300 6.312620 -1.374570
4
0.265530 -0.964103 0.000000 -9.042330
2.150361 -8.786763 -1.374570
2.150361 -8.786763 2.509780
6.453092 -7.601719 2.509780
6.453092 -7.601719 -1.374570
4
0.310450 -0.950590 0.000000 32.479400
-1.380486 33.716774 -1.374570
-1.380486 33.716774 1.362160
0.488092 34.327027 1.362160
0.488092 34.327100 -1.374570
4
0.261916 -0.965091 0.000000 2.763900
29.889587 10.975609 -1.374570
29.889587 10.975609 1.464600
31.612400 11.443163 1.464600
31.612400 11.443200 -1.374570
4
0.216880 -0.976198 0.000000 6.162690
10.770467 8.705804 -1.374570
10.770467 8.705804 2.389120
15.958807 9.858488 2.389120
15.958807 9.858488 -1.374570
4
0.268935 -0.963158 0.000000 -8.216940
45.737272 4.239609 -1.374570
45.737272 4.239609 2.590110
50.599600 5.597278 2.590110
50.599600 5.597240 -1.374570
4
0.243745 -0.969839 0.000000 6.451540
25.539489 13.070894 -1.374570
25.539489 13.070894 2.273710
29.637450 14.100815 2.273710
29.637450 14.100815 -1.374570
4
0.381033 -0.924561 0.000000 -2.886800
31.464943 9.845085 -0.917026
31.464943 9.845085 1.843360
33.370572 10.630439 1.843360
33.370572 10.630439 -0.917026
4
0.309359 -0.950945 0.000000 -0.711466
2.872153 0.186194 0.015790
2.872153 0.186194 1.843360
8.038751 1.866978 1.843360
8.038751 1.866978 0.015790
4
0.287565 -0.957761 0.000000 -9.391250
-5.142640 -11.349500 0.055012
-5.142640 -11.349484 2.264040
-2.839660 -10.658021 2.264040
-2.839660 -10.658000 0.055012
4
0.150419 -0.988622 0.000000 27.409600
-15.320067 25.394105 -1.079400
-15.320067 25.394105 -0.053843
-13.808400 25.624100 -0.053843
-13.808400 25.624100 -1.079400
4
0.284509 -0.958673 0.000000 25.244500
-13.840100 22.225300 -0.076805
-13.840100 22.225375 2.593280
-10.643100 23.174161 2.593280
-10.643100 23.174100 -0.076805
4
0.356255 -0.934389 0.000000 34.417600
-5.863060 34.598900 -1.044250
-5.863060 34.598926 1.543220
-5.011390 34.923642 1.543220
-5.011390 34.923600 -1.044250
4
0.343170 -0.939273 0.000000 -11.999600
43.255200 3.028130 -1.108970
43.255200 3.028179 2.509780
45.821003 3.965613 2.509780
45.821003 3.965613 -1.108970
4
0.264191 -0.964471 0.000000 23.139100
40.856900 35.183100 -1.108210
40.856900 35.183147 1.333340
42.477369 35.627031 1.333340
42.477369 35.627031 -1.108210
4
0.960182 0.279377 -0.000000 -4.859370
4.010192 3.611090 -1.374570
4.010192 3.611090 1.362160
-3.052577 27.884900 1.362160
-3.052580 27.884900 -1.374570
4
0.958954 0.283562 -0.000000 -7.978460
6.933716 4.688024 -1.053700
6.933716 4.688024 1.362160
-0.156732 28.666600 1.362160
-0.156728 28.666600 -1.053700
4
0.957886 0.287148 -0.000000 -28.217200
27.852971 5.353439 -1.118500
27.852971 5.353439 2.273710
25.539489 13.070894 2.273710
25.539489 13.070894 -1.118500
4
0.971596 0.236645 -0.000000 -4.470890
6.453092 -7.601719 -1.374570
6.453092 -7.601719 1.543220
5.423088 -3.372818 1.543220
5.423088 -3.372818 -1.374570
4
0.965127 0.261783 -0.000000 -12.673900
12.867247 0.975511 -1.374570
12.867247 0.975511 2.320310
10.770467 8.705804 2.320310
10.770467 8.705804 -1.374570
4
0.960718 0.277526 -0.000000 -50.696200
49.008275 13.018844 -1.374570
49.008275 13.018844 1.333340
42.477369 35.627031 1.333340
42.477369 35.627031 -1.374570
4
0.989571 0.144048 -0.000000 -2.869020
3.666481 -5.270626 -1.329350
3.666481 -5.270626 1.843360
2.718858 1.239291 1.843360
2.718858 1.239291 -1.329350
4
0.954458 0.298346 -0.000000 -7.181950
9.579446 -6.573672 -1.023370
9.579446 -6.573672 1.843360
8.287807 -2.441505 1.843360
8.287807 -2.441505 -1.023370
4
0.971600 0.236629 -0.000000 4.682830
-10.919900 25.047300 -1.191150
-10.919872 25.047300 2.593280
-12.305892 30.738306 2.593280
-12.305892 30.738306 -1.191150
4
0.971600 0.236629 -0.000000 4.682830
-12.847088 32.960461 -1.191150
-12.847088 32.960461 2.593280
-14.492906 39.718200 2.593280
-14.492900 39.718200 -1.191150
4
0.960611 0.277898 -0.000000 -48.870700
46.221855 16.083160 -1.374570
46.221855 16.083160 1.333340
41.103388 33.776182 1.333340
41.103388 33.776182 -1.374570
4
0.960763 0.277372 -0.000000 -18.067100
18.110643 2.404946 -1.374570
18.110643 2.404946 2.273710
15.958807 9.858488 2.273710
15.958807 9.858488 -1.374570
4
0.967477 0.252960 -0.000000 10.913600
-17.124700 22.351700 -1.374570
-17.124630 22.351700 2.593280
-20.618437 35.714200 2.593280
-20.618500 35.714200 -1.374570
4
0.958954 0.283562 -0.000000 -10.285100
12.424453 -5.746112 -1.061560
12.424453 -5.746112 1.843360
11.170196 -1.504448 1.843360
11.170196 -1.504448 -1.061560
4
0.955897 0.293702 -0.000000 3.426510
-0.697296 -9.397170 -1.374570
-0.697295 -9.397170 2.264040
-2.590441 -3.235644 2.264040
-2.590441 -3.235644 -1.374570
4
0.981791 0.189962 -0.000000 -55.017600
53.525300 12.986400 -1.374570
53.525320 12.986400 2.590110
52.553347 18.009901 2.590110
52.553347 18.009901 -1.374570
4
0.974623 0.223853 -0.000000 -8.252680
8.555754 -0.383977 -0.983025
8.555754 -0.383977 2.320310
8.038751 1.866978 2.320310
8.038751 1.866978 -0.983025
4
0.955233 0.295854 -0.000000 -55.165000
55.458700 7.398890 -1.374570
55.458730 7.398890 2.590110
53.869000 12.531700 2.590110
53.869000 12.531700 -1.374570
4
0.960717 0.277531 -0.000000 6.621390
-15.548900 29.966700 -1.374570
-15.548900 29.966700 0.160709
-17.124400 35.420700 0.160709
-17.124400 35.420700 -1.374570
4
0.974478 0.224484 -0.000000 9.511840
-7.372090 -10.370000 -1.173340
-7.372091 -10.370000 2.264040
-8.933471 -3.592099 2.264040
-8.933471 -3.592099 -1.173340
4
0.962503 0.271269 -0.000000 -4.475900
-3.445550 28.725200 -1.063660
-3.445554 28.725200 1.362160
-4.683826 33.118773 1.362160
-4.683826 33.118773 -1.063660
4
0.962073 0.272792 -0.000000 -40.461700
37.697100 15.375700 -0.903791
37.697069 15.375700 1.569360
33.574564 29.914800 1.569360
33.574600 29.914800 -0.903791
4
0.961653 0.274268 -0.000000 -35.006500
34.317593 7.309942 -0.977014
34.317593 7.309942 1.464600
33.370572 10.630439 1.464600
33.370572 10.630439 -0.977014
4
0.982705 0.185178 -0.000000 -35.147900
29.933300 30.955700 -1.374570
29.933281 30.955700 1.333340
28.998502 35.916400 1.333340
28.998500 35.916400 -1.374570
4