2
4
0.000000 1.000000 0.000000 0.000000
NaN NaN 0.000000
NaN NaN 10.000000
10.000000 0.000000 10.000000
10.000000 0.000000 0.000000
4
1.000000 0.000000 0.000000 0.000000
NaN NaN 0.000000
NaN NaN 10.000000
0.000000 10.000000 10.000000
0.000000 10.000000 0.000000
