2
4
-0.289700 0.957100 0.000000 2.944300
34.317600 7.309900 1.843400
34.317600 7.309900 -1.374600
15.904100 1.737200 -1.374600
15.904100 1.737100 1.843400
4
0.957900 0.287100 0.000000 -28.217200
25.539500 13.070900 -1.374600
25.539500 13.070900 2.273700
27.852577 5.354291 2.273700
27.852577 5.354291 -1.374600
