84
4
0.279305 -0.960202 0.000000 -8.987640
6.426106 -7.490920 -1.390440
6.426106 -7.490920 2.509780
42.643000 3.043904 2.509780
42.643000 3.043930 -1.390440
4
0.289672 -0.957126 0.000000 -2.944310
15.904100 1.737160 -1.090460
15.904100 1.737141 1.843360
34.317593 7.309942 1.843360
34.317593 7.309942 -1.090460
4
0.286741 -0.958008 0.000000 0.485720
7.813934 2.845796 -1.055360
7.813934 2.845796 1.362160
11.206122 3.861110 1.362160
11.206122 3.861110 -1.055360
4
0.298112 -0.954531 0.000000 33.009200
-12.305892 30.738306 -1.040960
-12.305892 30.738306 1.553820
-4.683826 33.118773 1.553820
-4.683826 33.118773 -1.040960
4
0.265755 -0.964041 0.000000 2.415510
-3.359323 1.579552 -1.111850
-3.359323 1.579552 1.362160
4.010192 3.611090 1.362160
4.010192 3.611090 -1.111850
4
0.309170 -0.951007 0.000000 -4.884230
3.482079 -4.003836 1.543220
3.482079 -4.003836 1.843360
11.170196 -1.504448 1.843360
11.170196 -1.504448 1.543220
4
0.254804 -0.966993 0.000000 1.762190
42.861459 13.116394 -1.059520
42.861459 13.116394 1.543220
46.975343 14.200408 1.543220
46.975343 14.200408 -1.059520
4
0.280672 -0.959804 0.000000 35.241400
-12.847088 32.960461 -1.056150
-12.847088 32.960461 1.553820
-6.134030 34.923536 1.553820
-6.134030 34.923600 -1.056150
4
0.292898 -0.956144 0.000000 -0.817968
-8.933471 -3.592099 -1.173720
-8.933471 -3.592099 1.362160
-2.240821 -1.541922 1.362160
-2.240821 -1.541922 -1.173720
4
0.290744 -0.956801 0.000000 2.161510
31.891700 11.950100 -1.066990
31.891700 11.950061 1.843360
35.218568 12.961000 1.843360
35.218568 12.961000 -1.066990
4
0.276444 -0.961030 0.000000 -2.734200
8.555754 -0.383977 -1.235690
8.555754 -0.383977 1.843360
11.218042 0.381841 1.843360
11.218042 0.381841 -1.235690
4
0.271303 -0.962494 0.000000 21.357900
32.821200 31.441700 -1.045230
32.821200 31.441640 1.333340
41.103388 33.776182 1.333340
41.103388 33.776182 -1.045230
4
0.274656 -0.961543 0.000000 2.769540
38.374400 13.841600 -1.102600
38.374400 13.841606 1.843360
46.221855 16.083160 1.843360
46.221855 16.083160 -1.102600
4
0.257510 -0.966276 0.000000 5.805140
18.482500 10.933300 -1.075150
18.482500 10.933283 2.273710
25.610815 12.832960 2.273710
25.610815 12.832960 -1.075150
4
0.276562 -0.960996 0.000000 -6.079060
1.341857 -5.939622 -1.111230
1.341857 -5.939622 1.543220
3.666481 -5.270626 1.543220
3.666481 -5.270626 -1.111230
4
0.258882 -0.965909 0.000000 2.733190
6.933716 4.688024 -1.125950
6.933716 4.688024 1.362160
10.775093 5.717586 1.362160
10.775093 5.717586 -1.125950
12
0.251197 -0.967936 0.000000 1.746660
31.446326 9.965414 -1.019590
29.764300 9.528900 -1.019590
29.767600 9.529760 -0.469558
29.737600 9.521970 0.675713
29.090700 9.354100 1.433910
27.807900 9.021180 1.574470
26.829592 8.767287 1.400950
26.829592 8.767287 1.543220
26.829592 8.767287 1.543220
30.200300 9.642060 1.543220
31.446326 9.965414 1.543220
31.446326 9.965414 -0.417580
4
0.271454 -0.962452 0.000000 30.685600
-0.935182 31.618970 -1.054970
-0.935182 31.618970 1.362160
2.830263 32.680992 1.362160
2.830263 32.680992 -1.054970
4
0.292379 -0.956303 0.000000 0.390201
2.718858 1.239291 -1.048770
2.718858 1.239291 1.362160
5.938129 2.223548 1.362160
5.938129 2.223548 -1.048770
4
-0.149290 -0.988794 0.000000 20.189400
46.758668 13.358494 -1.033690
46.758668 13.358494 1.843360
51.174400 12.691798 1.843360
51.174400 12.691800 -1.033690
4
0.223630 -0.974674 0.000000 24.803400
32.906865 32.998071 -0.983461
32.906865 32.998071 1.333340
40.291400 34.692385 1.333340
40.291400 34.692400 -0.983461
4
0.180740 -0.983531 0.000000 -2.714160
-2.590441 -3.235644 -1.095340
-2.590441 -3.235644 1.362160
1.084820 -2.560254 1.362160
1.084820 -2.560250 -1.095340
4
0.237950 -0.971277 0.000000 -2.114270
12.867247 0.975511 -1.005800
12.867247 0.975511 1.843360
15.359800 1.586153 1.843360
15.359800 1.586150 -1.005800
4
0.295908 -0.955216 0.000000 1.652390
47.976098 16.591955 -1.078570
47.976098 16.591955 2.590110
52.553347 18.009901 2.590110
52.553347 18.009901 -1.078570
4
0.317276 -0.948333 0.000000 -11.304800
51.133400 5.186530 -1.187740
51.133400 5.186575 2.590110
54.499300 6.312677 2.590110
54.499300 6.312620 -1.187740
4
0.265530 -0.964103 0.000000 -9.042330
2.150361 -8.786763 -1.035030
2.150361 -8.786763 1.543220
6.453092 -7.601719 1.543220
6.453092 -7.601719 -1.035030
4
0.310450 -0.950590 0.000000 32.479400
-1.380486 33.716774 -1.055100
-1.380486 33.716774 1.362160
0.488092 34.327027 1.362160
0.488092 34.327100 -1.055100
4
0.261916 -0.965091 0.000000 2.763900
29.889587 10.975609 -1.022030
29.889587 10.975609 1.464600
31.612400 11.443163 1.464600
31.612400 11.443200 -1.022030
4
0.216880 -0.976198 0.000000 6.162690
10.770467 8.705804 -1.146960
10.770467 8.705804 2.389120
15.958807 9.858488 2.389120
15.958807 9.858488 -1.146960
4
0.268935 -0.963158 0.000000 -8.216940
45.737272 4.239609 -1.078620
45.737272 4.239609 2.590110
50.599600 5.597278 2.590110
50.599600 5.597240 -1.078620
4
0.243745 -0.969839 0.000000 6.451540
25.539489 13.070894 -1.148650
25.539489 13.070894 2.273710
29.637450 14.100815 2.273710
29.637450 14.100815 -1.148650
4
0.381033 -0.924561 0.000000 -2.886800
31.464943 9.845085 -0.917026
31.464943 9.845085 2.320310
33.370572 10.630439 2.320310
33.370572 10.630439 -0.917026
4
0.309359 -0.950945 0.000000 -0.711466
2.872153 0.186194 0.015790
2.872153 0.186194 1.843360
8.038751 1.866978 1.843360
8.038751 1.866978 0.015790
4
0.287565 -0.957761 0.000000 -9.391250
-5.142640 -11.349500 0.055012
-5.142640 -11.349484 2.264040
-2.839660 -10.658021 2.264040
-2.839660 -10.658000 0.055012
4
0.150419 -0.988622 0.000000 27.409600
-15.320067 25.394105 -1.079400
-15.320067 25.394105 -0.053843
-13.808400 25.624100 -0.053843
-13.808400 25.624100 -1.079400
4
0.284509 -0.958673 0.000000 25.244500
-13.840100 22.225300 -0.076805
-13.840100 22.225375 2.593280
-10.643100 23.174161 2.593280
-10.643100 23.174100 -0.076805
4
0.356255 -0.934389 0.000000 34.417600
-5.863060 34.598900 -1.044250
-5.863060 34.598926 1.543220
-5.011390 34.923642 1.543220
-5.011390 34.923600 -1.044250
4
0.343170 -0.939273 0.000000 -11.999600
43.255200 3.028130 -1.108970
43.255200 3.028179 2.509780
45.821003 3.965613 2.509780
45.821003 3.965613 -1.108970
4
0.264191 -0.964471 0.000000 23.139100
40.856900 35.183100 -1.108210
40.856900 35.183147 1.333340
42.477369 35.627031 1.333340
42.477369 35.627031 -1.108210
4
0.960182 0.279377 -0.000000 -4.859370
4.010192 3.611090 -1.045350
4.010192 3.611090 1.362160
-3.052577 27.884900 1.362160
-3.052580 27.884900 -1.045350
4
0.958954 0.283562 -0.000000 -7.978460
6.933716 4.688024 -1.053700
6.933716 4.688024 1.362160
-0.156732 28.666600 1.362160
-0.156728 28.666600 -1.053700
4
0.957886 0.287148 -0.000000 -28.217200
27.852971 5.353439 -1.118500
27.852971 5.353439 2.273710
25.539489 13.070894 2.273710
25.539489 13.070894 -1.118500
4
0.971596 0.236645 -0.000000 -4.470890
6.453092 -7.601719 -0.984557
6.453092 -7.601719 1.543220
5.423088 -3.372818 1.543220
5.423088 -3.372818 -0.984557
4
0.965127 0.261783 -0.000000 -12.673900
12.867247 0.975511 -1.049560
12.867247 0.975511 2.389120
10.770467 8.705804 2.389120
10.770467 8.705804 -1.049560
4
0.960718 0.277526 -0.000000 -50.696200
49.008275 13.018844 -1.052170
49.008275 13.018844 1.543220
42.477369 35.627031 1.543220
42.477369 35.627031 -1.052170
4
0.989571 0.144048 -0.000000 -2.869020
3.666481 -5.270626 -1.329350
3.666481 -5.270626 1.843360
2.718858 1.239291 1.843360
2.718858 1.239291 -1.329350
4
0.954458 0.298346 -0.000000 -7.181950
9.579446 -6.573672 -1.023370
9.579446 -6.573672 1.843360
8.287807 -2.441505 1.843360
8.287807 -2.441505 -1.023370
4
0.971600 0.236629 -0.000000 4.682830
-10.919900 25.047300 -1.191150
-10.919872 25.047300 2.593280
-12.305892 30.738306 2.593280
-12.305892 30.738306 -1.191150
4
0.971600 0.236629 -0.000000 4.682830
-12.847088 32.960461 -1.191150
-12.847088 32.960461 2.593280
-14.492906 39.718200 2.593280
-14.492900 39.718200 -1.191150
4
0.960611 0.277898 -0.000000 -48.870700
46.221855 16.083160 -1.045840
46.221855 16.083160 1.333340
41.103388 33.776182 1.333340
41.103388 33.776182 -1.045840
4
0.960763 0.277372 -0.000000 -18.067100
18.110643 2.404946 -1.026840
18.110643 2.404946 2.273710
15.958807 9.858488 2.273710
15.958807 9.858488 -1.026840
4
0.967477 0.252960 -0.000000 10.913600
-17.124700 22.351700 -1.093940
-17.124630 22.351700 2.593280
-20.618437 35.714200 2.593280
-20.618500 35.714200 -1.093940
4
0.958954 0.283562 -0.000000 -10.285100
12.424453 -5.746112 -1.061560
12.424453 -5.746112 1.543220
11.170196 -1.504448 1.543220
11.170196 -1.504448 -1.061560
4
0.955897 0.293702 -0.000000 3.426510
-0.697296 -9.397170 -1.055020
-0.697295 -9.397170 2.264040
-2.590441 -3.235644 2.264040
-2.590441 -3.235644 -1.055020
4
0.981791 0.189962 -0.000000 -55.017600
53.525300 12.986400 -1.113560
53.525320 12.986400 2.590110
52.553347 18.009901 2.590110
52.553347 18.009901 -1.113560
4
0.974623 0.223853 -0.000000 -8.252680
8.555754 -0.383977 -0.983025
8.555754 -0.383977 1.843360
8.038751 1.866978 1.843360
8.038751 1.866978 -0.983025
4
0.955233 0.295854 -0.000000 -55.165000
55.458700 7.398890 -1.116180
55.458730 7.398890 2.590110
53.869000 12.531700 2.590110
53.869000 12.531700 -1.116180
4
0.960717 0.277531 -0.000000 6.621390
-15.548900 29.966700 -1.055550
-15.548900 29.966700 0.160709
-17.124400 35.420700 0.160709
-17.124400 35.420700 -1.055550
4
0.974478 0.224484 -0.000000 9.511840
-7.372090 -10.370000 -1.173340
-7.372091 -10.370000 2.264040
-8.933471 -3.592099 2.264040
-8.933471 -3.592099 -1.173340
4
0.962503 0.271269 -0.000000 -4.475900
-3.445550 28.725200 -1.063660
-3.445554 28.725200 1.362160
-4.683826 33.118773 1.362160
-4.683826 33.118773 -1.063660
4
0.962073 0.272792 -0.000000 -40.461700
37.697100 15.375700 -0.903791
37.697069 15.375700 1.569360
33.574564 29.914800 1.569360
33.574600 29.914800 -0.903791
4
0.961653 0.274268 -0.000000 -35.006500
34.317593 7.309942 -0.977014
34.317593 7.309942 1.843360
33.370572 10.630439 1.843360
33.370572 10.630439 -0.977014
4
0.982705 0.185178 -0.000000 -35.147900
29.933300 30.955700 -1.125270
29.933281 30.955700 1.333340
28.998502 35.916400 1.333340
28.998500 35.916400 -1.125270
4
0.961253 0.275669 -0.000000 -37.426900
35.218568 12.961000 -0.982913
35.218568 12.961000 1.569360
32.956039 20.850400 1.569360
32.956100 20.850400 -0.982913
4
0.963698 0.266993 -0.000000 -37.307500
31.768300 25.066100 -1.081110
31.768279 25.066100 1.569360
30.302959 30.355100 1.569360
30.302900 30.355100 -1.081110
4
0.997298 0.073457 -0.000000 -1.389980
-0.759010 29.227300 -1.104740
-0.759021 29.227300 1.362160
-0.935182 31.618970 1.362160
-0.935182 31.618970 -1.104740
4
0.942012 0.335579 -0.000000 -31.059200
30.751534 6.230683 -1.031980
30.751534 6.230683 1.543220
29.592475 9.484306 1.543220
29.592475 9.484306 -1.031980
4
0.943665 0.330902 -0.000000 -44.787100
43.471300 11.377200 -0.974672
43.471318 11.377200 1.543220
42.861459 13.116394 1.543220
42.861459 13.116394 -0.974672
4
0.941389 0.337323 -0.000000 2.629610
-2.240821 -1.541922 -1.106750
-2.240821 -1.541922 1.362160
-3.359323 1.579552 1.362160
-3.359323 1.579552 -1.106750
4
0.969981 0.243181 -0.000000 8.684810
-15.320067 25.394105 -1.121740
-15.320067 25.394105 -0.013595
-16.036100 28.250200 -0.013595
-16.036100 28.250200 -1.121740
4
0.964895 0.262635 -0.000000 -45.103500
45.679168 3.913793 -1.039880
45.679168 3.913793 1.333340
44.222347 9.266010 1.333340
44.222300 9.266010 -1.039880
4
0.961966 0.273170 -0.000000 0.331706
2.150361 -8.786763 -1.123280
2.150361 -8.786763 2.509780
1.341857 -5.939622 2.509780
1.341857 -5.939622 -1.123280
4
0.980524 -0.196397 0.000000 -5.385780
5.715313 1.111124 -0.926676
5.715313 1.111124 1.543220
5.938129 2.223548 1.543220
5.938129 2.223548 -0.926676
4
0.899105 -0.437734 0.000000 -35.301800
44.500500 10.757100 -0.900751
44.500418 10.757100 1.543220
45.364927 12.532800 1.543220
45.365000 12.532800 -0.900751
4
0.996761 0.080417 -0.000000 -30.675400
29.889587 10.975609 -1.058830
29.889587 10.975609 2.273710
29.637450 14.100815 2.273710
29.637450 14.100815 -1.058830
4
0.989146 0.146933 -0.000000 -37.398200
32.906865 32.998071 -1.105200
32.906865 32.998071 1.333340
32.485394 35.835400 1.333340
32.485400 35.835400 -1.105200
4
0.972223 0.234058 -0.000000 -6.549540
-1.380486 33.716774 -1.059470
-1.380486 33.716774 1.543220
-1.865402 35.731000 1.543220
-1.865400 35.731000 -1.059470
4
0.968442 -0.249239 0.000000 -41.953600
46.758668 13.358494 -0.835549
46.758668 13.358494 1.543220
46.975343 14.200408 1.543220
46.975343 14.200408 -0.835549
4
0.988241 0.152904 -0.000000 -32.600300
31.567200 9.183830 -0.828854
31.567255 9.183830 1.543220
31.464943 9.845085 1.543220
31.464943 9.845085 -0.828854
4
0.937253 0.348650 -0.000000 -14.046900
2.830263 32.680992 -1.180840
2.830263 32.680992 1.362160
2.165139 34.469000 1.362160
2.165190 34.469000 -1.180840
4
0.956342 0.292250 -0.000000 -44.979500
45.821003 3.965613 1.543220
45.821003 3.965613 2.509780
44.515184 8.238700 2.509780
44.515184 8.238700 1.543220
4
0.971523 0.236947 -0.000000 -36.017200
31.816800 21.551000 -1.027100
31.816802 21.551000 1.543220
31.170683 24.200200 1.543220
31.170700 24.200200 -1.027100
4
0.974090 0.226160 -0.000000 -11.789000
11.206122 3.861110 -1.220530
11.206122 3.861110 1.362160
10.775093 5.717586 1.362160
10.775093 5.717586 -1.220530
4
0.997643 -0.068619 0.000000 -11.165400
11.218042 0.381841 -0.955627
11.218042 0.381841 1.543220
11.271155 1.154040 1.543220
11.271200 1.154040 -0.955627
