2
4
1.000000 0.000000 0.000000 0.000000
0.000000 0.000000 0.000000
0.000000 0.000000 10.000000
0.000000 10.000000 10.000000
0.000000 10.000000 0.000000
10
0.000000 1.000000 0.000000 0.000000
0.000000 0.000000 0.000000
1.500000 0.000000 1.000000
0.000000 0.000000 2.000000
2.000000 0.000000 4.000000
2.000000 0.000000 8.000000
1.500000 0.000000 12.000000
0.000000 0.000000 13.000000
0.000000 0.000000 20.000000
10.000000 0.000000 10.000000
10.000000 0.000000 0.000000
