3
4
0.000000 1.000000 0.000000 0.000000
0.000000 0.000000 0.000000
0.000000 0.000000 10.000000
10.000000 0.000000 10.000000
10.000000 0.000000 0.000000
4
1.000000 0.000000 0.000000 0.000000
0.000000 0.000000 0.000000
0.000000 0.000000 10.000000
0.000000 11.000000 10.000000
0.000000 11.000000 0.000000
4
0.100000 1.000000 0.000000 -11.000000
0.000000 11.000000 0.000000
0.000000 11.000000 10.000000
10.000000 10.000000 10.000000
10.000000 10.000000 0.000000
