5
4
0.000000 1.000000 0.000000 0.000000
0.000000 0.000000 0.000000
0.000000 0.000000 20.000000
5.200000 0.000000 20.000000
5.200000 0.000000 0.000000
4
1.000000 0.000000 0.000000 0.000000
0.000000 0.000000 0.000000
0.000000 0.000000 20.000000
0.000000 5.000000 20.000000
0.000000 5.000000 0.000000
4
0.000000 -1.000000 0.000000 5.000000
0.000000 5.000000 0.000000
0.000000 5.000000 20.000000
5.200000 5.000000 20.000000
5.200000 5.000000 0.000000
4
-1.000000 0.000000 0.000000 3.000000
3.000000 0.000000 0.000000
3.000000 0.000000 20.000000
3.000000 5.000000 20.000000
3.000000 5.000000 0.000000
4
-1.000000 0.000000 0.000000 5.200000
5.200000 0.000000 0.000000
5.200000 0.000000 25.000000
5.200000 5.000000 25.000000
5.200000 5.000000 0.000000
