94
4
0.279305 -0.960202 0.000000 -8.987640
6.426106 -7.490920 -1.374570
6.426106 -7.490920 2.389120
42.643000 3.043904 2.389120
42.643000 3.043904 -1.374570
4
0.289672 -0.957126 0.000000 -2.944310
15.904100 1.737141 -1.374570
15.904100 1.737141 1.843360
34.317593 7.309942 1.843360
34.317593 7.309942 -1.374570
4
0.286741 -0.958008 0.000000 0.485720
7.813934 2.845796 -1.374570
7.813934 2.845796 1.464600
11.206122 3.861110 1.464600
11.206122 3.861110 -1.374570
4
0.298112 -0.954531 0.000000 33.009200
-12.305892 30.738306 -1.374570
-12.305892 30.738306 1.464600
-4.683826 33.118773 1.464600
-4.683826 33.118773 -1.374570
4
0.265755 -0.964041 0.000000 2.415510
-3.359323 1.579552 -1.374570
-3.359323 1.579552 1.362160
4.010192 3.611090 1.362160
4.010192 3.611090 -1.374570
4
0.309170 -0.951007 0.000000 -4.884230
4.040950 -3.822148 1.464600
4.040950 -3.822148 1.464600
11.170196 -1.504448 1.464600
11.170196 -1.504448 1.464600
4
0.254804 -0.966993 0.000000 1.762190
42.861459 13.116394 -1.374570
42.861459 13.116394 1.843360
46.975343 14.200408 1.843360
46.975343 14.200408 -1.374570
4
0.280672 -0.959804 0.000000 35.241400
-12.847088 32.960461 -1.374570
-12.847088 32.960461 1.464600
-6.134030 34.923536 1.464600
-6.134030 34.923536 -1.374570
4
0.292898 -0.956144 0.000000 -0.817968
-8.933471 -3.592099 -1.374570
-8.933471 -3.592099 1.362160
-2.240821 -1.541923 1.362160
-2.240821 -1.541923 -1.374570
4
0.290744 -0.956801 0.000000 2.161510
31.891700 11.950061 -1.374570
31.891700 11.950061 1.464600
35.218568 12.961000 1.464600
35.218568 12.961000 -1.374570
4
0.276444 -0.961030 0.000000 -2.734200
8.555754 -0.383977 -1.374570
8.555754 -0.383977 1.464600
11.218042 0.381841 1.464600
11.218042 0.381841 -1.374570
4
0.271303 -0.962494 0.000000 21.357900
32.821200 31.441640 -1.374570
32.821200 31.441640 1.333340
41.103388 33.776182 1.333340
41.103388 33.776182 -1.374570
4
0.274656 -0.961543 0.000000 2.769540
38.374400 13.841606 -1.374570
38.374400 13.841606 1.464600
46.221855 16.083160 1.464600
46.221855 16.083160 -1.374570
4
0.257510 -0.966276 0.000000 5.805140
18.482500 10.933283 -1.374570
18.482500 10.933283 1.464600
25.610815 12.832960 1.464600
25.610815 12.832960 -1.374570
4
0.276562 -0.960996 0.000000 -6.079060
1.341857 -5.939622 -1.374570
1.341857 -5.939622 1.464600
3.666481 -5.270626 1.464600
3.666481 -5.270626 -1.374570
4
0.258882 -0.965909 0.000000 2.733190
6.933716 4.688024 -1.374570
6.933716 4.688024 1.362160
10.775093 5.717586 1.362160
10.775093 5.717586 -1.374570
12
0.251197 -0.967936 0.000000 1.746660
31.446326 9.965414 -1.374570
29.764300 9.528900 -1.374570
29.767600 9.529760 -0.469558
29.737600 9.521970 0.675713
29.090700 9.354100 1.433910
27.807900 9.021176 1.464600
27.100100 8.837480 1.400950
27.100100 8.837489 1.464600
27.100100 8.837489 1.464600
30.200300 9.642060 1.464600
31.446326 9.965414 1.464600
31.446326 9.965414 -0.417580
4
0.271454 -0.962452 0.000000 30.685600
-0.935182 31.618970 -1.374570
-0.935182 31.618970 1.464600
2.830263 32.680992 1.464600
2.830263 32.680992 -1.374570
4
0.292379 -0.956303 0.000000 0.390201
2.718858 1.239291 -1.374570
2.718858 1.239291 1.464600
5.938129 2.223548 1.464600
5.938129 2.223548 -1.374570
4
-0.149290 -0.988794 0.000000 20.189400
46.758668 13.358494 -1.374570
46.758668 13.358494 1.843360
51.174400 12.691798 1.843360
51.174400 12.691798 -1.374570
4
0.223630 -0.974674 0.000000 24.803400
32.906865 32.998071 -1.374570
32.906865 32.998071 1.464600
40.291400 34.692385 1.464600
40.291400 34.692385 -1.374570
4
0.180740 -0.983531 0.000000 -2.714160
-2.590441 -3.235644 -1.374570
-2.590441 -3.235644 1.464600
1.084820 -2.560254 1.464600
1.084820 -2.560254 -1.374570
4
0.237950 -0.971277 0.000000 -2.114270
12.867247 0.975511 -1.374570
12.867247 0.975511 1.464600
15.359800 1.586153 1.464600
15.359800 1.586153 -1.374570
4
0.295908 -0.955216 0.000000 1.652390
48.274000 16.684240 -1.374570
48.274000 16.684240 2.590110
52.553347 18.009901 2.590110
52.553347 18.009901 -1.374570
4
0.317276 -0.948333 0.000000 -11.304800
51.133400 5.186575 -1.374570
51.133400 5.186575 2.389120
54.499300 6.312677 2.389120
54.499300 6.312677 -1.374570
4
0.265530 -0.964103 0.000000 -9.042330
2.150361 -8.786763 -1.374570
2.150361 -8.786763 1.464600
6.453092 -7.601719 1.464600
6.453092 -7.601719 -1.374570
4
0.310450 -0.950590 0.000000 32.479400
-1.380486 33.716774 -1.374570
-1.380486 33.716774 1.464600
0.488092 34.327027 1.464600
0.488092 34.327027 -1.374570
4
0.261916 -0.965091 0.000000 2.763900
29.889587 10.975609 -1.374570
29.889587 10.975609 1.464600
31.612400 11.443163 1.464600
31.612400 11.443163 -1.374570
4
0.216880 -0.976198 0.000000 6.162690
10.770467 8.705804 -1.374570
10.770467 8.705804 2.389120
15.958807 9.858488 2.389120
15.958807 9.858488 -1.374570
4
0.268935 -0.963158 0.000000 -8.216940
45.838700 4.267930 -1.374570
45.838700 4.267930 2.389120
50.599600 5.597278 2.389120
50.599600 5.597278 -1.374570
4
0.243745 -0.969839 0.000000 6.451540
25.539489 13.070894 -1.374570
25.539489 13.070894 1.464600
29.637450 14.100815 1.464600
29.637450 14.100815 -1.374570
4
0.381033 -0.924561 0.000000 -2.886800
31.464943 9.845085 -1.374570
31.464943 9.845085 1.464600
33.370572 10.630439 1.464600
33.370572 10.630439 -1.374570
4
0.309359 -0.950945 0.000000 -0.711466
3.733110 0.466276 0.015790
3.733110 0.466278 1.464600
8.038751 1.866979 1.464600
8.038751 1.866978 0.015790
4
0.287565 -0.957761 0.000000 -9.391250
-5.142640 -11.349500 0.055012
-5.142640 -11.349484 1.464600
-2.839660 -10.658021 1.464600
-2.839660 -10.658000 0.055012
4
0.150419 -0.988622 0.000000 27.409600
-15.320067 25.394105 -1.374570
-15.320067 25.394105 -0.053843
-13.808400 25.624100 -0.053843
-13.808400 25.624105 -1.374570
4
0.284509 -0.958673 0.000000 25.244500
-13.840100 22.225300 -0.076805
-13.840100 22.225375 2.389120
-10.643100 23.174161 2.389120
-10.643100 23.174100 -0.076805
4
0.356255 -0.934389 0.000000 34.417600
-5.863060 34.598926 -1.374570
-5.863060 34.598926 1.464600
-5.011390 34.923642 1.464600
-5.011390 34.923642 -1.374570
4
0.343170 -0.939273 0.000000 -11.999600
43.255200 3.028179 -1.374570
43.255200 3.028179 2.389120
45.367700 3.799996 2.389120
45.367700 3.799996 -1.374570
4
0.264191 -0.964471 0.000000 23.139100
40.856900 35.183147 -1.374570
40.856900 35.183147 1.464600
42.477369 35.627031 1.464600
42.477369 35.627031 -1.374570
4
0.960182 0.279377 -0.000000 -4.859370
4.010192 3.611090 -1.374570
4.010192 3.611090 1.362160
-3.052577 27.884900 1.362160
-3.052577 27.884900 -1.374570
4
0.958954 0.283562 -0.000000 -7.978460
6.933716 4.688024 -1.374570
6.933716 4.688024 1.362160
-0.156732 28.666600 1.362160
-0.156732 28.666600 -1.374570
4
0.957886 0.287148 -0.000000 -28.217200
27.720516 5.795290 -1.374570
27.720516 5.795290 2.273710
25.539489 13.070894 2.273710
25.539489 13.070894 -1.374570
4
0.971596 0.236645 -0.000000 -4.470890
6.453092 -7.601719 -1.374570
6.453092 -7.601719 1.464600
5.381125 -3.200530 1.464600
5.381125 -3.200530 -1.374570
4
0.965127 0.261783 -0.000000 -12.673900
12.867247 0.975511 -1.374570
12.867247 0.975511 1.843360
10.770467 8.705804 1.843360
10.770467 8.705804 -1.374570
4
0.960718 0.277526 -0.000000 -50.696200
48.878526 13.468000 -1.374570
48.878526 13.468000 1.464600
42.477369 35.627031 1.464600
42.477369 35.627031 -1.374570
4
0.989571 0.144048 -0.000000 -2.869020
3.666481 -5.270626 -1.374570
3.666481 -5.270626 1.843360
2.718858 1.239291 1.843360
2.718858 1.239291 -1.374570
4
0.954458 0.298346 -0.000000 -7.181950
9.492213 -6.294600 -1.374570
9.492213 -6.294600 1.464600
8.199004 -2.157410 1.464600
8.199004 -2.157410 -1.374570
4
0.971600 0.236629 -0.000000 4.682830
-10.919872 25.047300 -1.374570
-10.919872 25.047300 2.389120
-12.305892 30.738306 2.389120
-12.305892 30.738306 -1.374570
4
0.971600 0.236629 -0.000000 4.682830
-12.847088 32.960461 -1.374570
-12.847088 32.960461 2.389120
-14.492906 39.718200 2.389120
-14.492906 39.718200 -1.374570
4
0.960611 0.277898 -0.000000 -48.870700
46.221855 16.083160 -1.374570
46.221855 16.083160 1.333340
41.103388 33.776182 1.333340
41.103388 33.776182 -1.374570
4
0.960763 0.277372 -0.000000 -18.067100
17.943761 2.982990 -1.374570
17.943761 2.982990 2.273710
15.958807 9.858488 2.273710
15.958807 9.858488 -1.374570
4
0.967477 0.252960 -0.000000 10.913600
-17.124630 22.351700 -1.374570
-17.124630 22.351700 2.593280
-20.618437 35.714200 2.593280
-20.618437 35.714200 -1.374570
4
0.958954 0.283562 -0.000000 -10.285100
12.367974 -5.555110 -1.374570
12.367974 -5.555110 1.843360
11.170196 -1.504448 1.843360
11.170196 -1.504448 -1.374570
4
0.955897 0.293702 -0.000000 3.426510
-0.697295 -9.397170 -1.374570
-0.697295 -9.397170 1.464600
-2.590441 -3.235644 1.464600
-2.590441 -3.235644 -1.374570
4
0.981791 0.189962 -0.000000 -55.017600
53.525320 12.986400 -1.374570
53.525320 12.986400 2.389120
52.553347 18.009901 2.389120
52.553347 18.009901 -1.374570
4
0.974623 0.223853 -0.000000 -8.252680
8.555754 -0.383977 -1.374570
8.555754 -0.383977 1.843360
8.038751 1.866978 1.843360
8.038751 1.866978 -1.374570
4
0.955233 0.295854 -0.000000 -55.165000
55.458730 7.398890 -1.374570
55.458730 7.398890 2.389120
53.869000 12.531700 2.389120
53.869000 12.531700 -1.374570
4
0.960717 0.277531 -0.000000 6.621390
-15.548885 29.966700 -1.374570
-15.548900 29.966700 0.160709
-17.124400 35.420700 0.160709
-17.124431 35.420700 -1.374570
4
0.974478 0.224484 -0.000000 9.511840
-7.372091 -10.370000 -1.374570
-7.372091 -10.370000 1.362160
-8.933471 -3.592099 1.362160
-8.933471 -3.592099 -1.374570
4
0.962503 0.271269 -0.000000 -4.475900
-3.445554 28.725200 -1.374570
-3.445554 28.725200 1.464600
-4.683826 33.118773 1.464600
-4.683826 33.118773 -1.374570
4
0.962073 0.272792 -0.000000 -40.461700
37.697069 15.375700 -1.374570
37.697069 15.375700 1.464600
33.574564 29.914800 1.464600
33.574564 29.914800 -1.374570
4
0.961653 0.274268 -0.000000 -35.006500
34.317594 7.309942 -1.374570
34.317594 7.309942 1.843360
33.370572 10.630439 1.843360
33.370572 10.630439 -1.374570
4
0.982705 0.185178 -0.000000 -35.147900
29.933281 30.955700 -1.374570
29.933281 30.955700 1.464600
28.998502 35.916400 1.464600
28.998502 35.916400 -1.374570
4
0.961253 0.275669 -0.000000 -37.426900
35.218568 12.961000 -1.374570
35.218568 12.961000 1.464600
32.956039 20.850400 1.464600
32.956039 20.850400 -1.374570
4
0.963698 0.266993 -0.000000 -37.307500
31.768279 25.066100 -1.374570
31.768279 25.066100 1.464600
30.302959 30.355100 1.464600
30.302959 30.355100 -1.374570
4
0.997298 0.073457 -0.000000 -1.389980
-0.759021 29.227300 -1.374570
-0.759021 29.227300 1.464600
-0.935182 31.618970 1.464600
-0.935182 31.618970 -1.374570
4
0.942012 0.335579 -0.000000 -31.059200
30.601352 6.652260 -1.374570
30.601352 6.652260 1.464600
29.606505 9.444920 1.464600
29.606505 9.444920 -1.374570
4
0.943665 0.330902 -0.000000 -44.787100
43.471318 11.377200 -1.374570
43.471318 11.377200 1.464600
42.861459 13.116394 1.464600
42.861459 13.116394 -1.374570
4
0.941389 0.337323 -0.000000 2.629610
-2.240821 -1.541922 -1.374570
-2.240821 -1.541922 1.362160
-3.359322 1.579552 1.362160
-3.359322 1.579552 -1.374570
4
0.969981 0.243181 -0.000000 8.684810
-15.320067 25.394105 -1.374570
-15.320067 25.394105 -0.013595
-16.036100 28.250200 -0.013595
-16.036110 28.250200 -1.374570
4
0.964895 0.262635 -0.000000 -45.103500
45.474700 4.664990 -1.374570
45.474700 4.664990 1.843360
44.222347 9.266010 1.843360
44.222347 9.266010 -1.374570
4
0.961966 0.273170 -0.000000 0.331706
2.150361 -8.786763 -1.374570
2.150361 -8.786763 2.389120
1.341857 -5.939622 2.389120
1.341857 -5.939622 -1.374570
4
0.980524 -0.196397 0.000000 -5.385780
5.715076 1.109940 -1.374570
5.715076 1.109940 1.464600
5.938129 2.223548 1.464600
5.938129 2.223548 -1.374570
4
0.899105 -0.437734 0.000000 -35.301800
44.500418 10.757100 -1.374570
44.500418 10.757100 1.464600
45.364927 12.532800 1.464600
45.364927 12.532800 -1.374570
4
0.996761 0.080417 -0.000000 -30.675400
29.889587 10.975609 -1.374570
29.889587 10.975609 1.464600
29.637450 14.100815 1.464600
29.637450 14.100815 -1.374570
4
0.989146 0.146933 -0.000000 -37.398200
32.906866 32.998071 -1.374570
32.906866 32.998071 1.333340
32.485394 35.835400 1.333340
32.485394 35.835400 -1.374570
4
0.972223 0.234058 -0.000000 -6.549540
-1.380486 33.716774 -1.374570
-1.380486 33.716774 1.464600
-1.865402 35.731000 1.464600
-1.865402 35.731000 -1.374570
4
0.968442 -0.249239 0.000000 -41.953600
46.758668 13.358494 -1.374570
46.758668 13.358494 1.464600
46.975343 14.200408 1.464600
46.975343 14.200408 -1.374570
4
0.988241 0.152904 -0.000000 -32.600300
31.567255 9.183830 -1.374570
31.567255 9.183830 1.464600
31.464943 9.845085 1.464600
31.464943 9.845085 -1.374570
4
0.937253 0.348650 -0.000000 -14.046900
2.830263 32.680992 -1.374570
2.830263 32.680992 1.464600
2.165139 34.469000 1.464600
2.165139 34.469000 -1.374570
4
0.956342 0.292250 -0.000000 -44.979500
45.608823 4.659940 1.464600
45.608823 4.659940 1.843360
44.515184 8.238700 1.843360
44.515184 8.238700 1.464600
4
0.971523 0.236947 -0.000000 -36.017200
31.816802 21.551000 -1.374570
31.816802 21.551000 1.464600
31.170683 24.200200 1.464600
31.170683 24.200200 -1.374570
4
0.974090 0.226160 -0.000000 -11.789000
11.206122 3.861110 -1.374570
11.206122 3.861110 1.464600
10.775093 5.717586 1.464600
10.775093 5.717586 -1.374570
4
0.997643 -0.068619 0.000000 -11.165400
11.218042 0.381841 -1.374570
11.218042 0.381841 1.843360
11.271155 1.154040 1.843360
11.271155 1.154040 -1.374570
106
0.000000 0.000000 -1.000000 1.843360
2.718858 1.239291 1.843360
3.666481 -5.270626 1.843360
9.492200 -6.294600 1.843360
8.199000 -2.157410 1.843360
11.170196 -1.504448 1.843360
12.367974 -5.555110 1.843360
12.617600 -1.367200 1.843360
13.892900 -1.076610 1.843360
14.474200 -0.826421 1.843360
14.914400 -0.705008 1.843360
15.387600 -0.518527 1.843360
15.866600 -0.499172 1.843360
16.597400 -0.156704 1.843360
17.673500 0.002287 1.843360
18.073900 0.196826 1.843360
18.382500 0.441643 1.843360
19.549100 0.708482 1.843360
20.017300 0.942726 1.843360
20.457000 1.051840 1.843360
20.878800 1.222430 1.843360
21.888300 1.332330 1.843360
22.125900 1.459760 1.843360
22.921800 1.652410 1.843360
23.449700 1.980900 1.843360
24.059700 2.147960 1.843360
25.303100 2.448000 1.843360
26.406700 2.844750 1.843360
26.905700 2.843260 1.843360
27.726700 3.136380 1.843360
28.394600 3.274530 1.843360
28.836700 3.416510 1.843360
29.368100 3.496090 1.843360
29.769100 3.636910 1.843360
29.960800 3.629720 1.843360
30.826100 4.078660 1.843360
31.034500 4.093930 1.843360
31.485700 4.372600 1.843360
32.507000 4.669700 1.843360
33.049700 4.632940 1.843360
33.477500 4.943760 1.843360
34.336900 5.068310 1.843360
34.546600 5.144620 1.843360
35.008100 5.219470 1.843360
35.352700 5.418030 1.843360
35.871600 5.434220 1.843360
36.380500 5.572840 1.843360
37.064800 5.852250 1.843360
37.316200 5.855130 1.843360
38.180300 6.170770 1.843360
38.835800 6.429400 1.843360
39.520000 6.769670 1.843360
40.053400 6.861400 1.843360
40.298000 6.993420 1.843360
41.445100 7.241170 1.843360
41.716300 7.256160 1.843360
42.333600 7.596690 1.843360
43.588800 7.758860 1.843360
44.515184 8.238700 1.843360
45.608823 4.659940 1.843360
44.222347 9.266010 1.843360
45.787100 8.326660 1.843360
46.382800 8.529320 1.843360
46.804600 8.561760 1.843360
47.229800 8.801570 1.843360
48.271900 9.164110 1.843360
49.277900 9.392170 1.843360
49.444600 9.568840 1.843360
49.975700 9.877490 1.843360
50.499200 10.309900 1.843360
50.796700 10.773600 1.843360
51.153500 11.183100 1.843360
51.276100 11.390700 1.843360
51.393700 11.753400 1.843360
51.377300 11.917500 1.843360
51.174400 12.691798 1.843360
46.758668 13.358494 1.843360
42.861459 13.116394 1.843360
46.221855 16.083160 1.843360
38.374400 13.841600 1.843360
37.895400 13.403400 1.843360
37.430300 13.209000 1.843360
37.080100 13.192400 1.843360
36.615100 13.019400 1.843360
36.188700 12.953000 1.843360
35.609300 12.979900 1.843360
35.340700 12.840500 1.843360
35.218568 12.961000 1.843360
31.891700 11.950100 1.843360
31.699900 11.636400 1.843360
31.822700 11.073900 1.843360
31.907100 10.433100 1.843360
33.370572 10.630439 1.843360
34.317594 7.309942 1.843360
15.904100 1.737141 1.843360
15.560000 2.398350 1.843360
15.181900 2.387670 1.843360
15.359800 1.586150 1.843360
12.867247 0.975511 1.843360
10.770467 8.705804 1.843360
11.271155 1.154040 1.843360
11.218042 0.381841 1.843360
8.555754 -0.383977 1.843360
8.038751 1.866978 1.843360
3.733110 0.466276 1.843360
3.608910 0.065624 1.843360
3.081680 -1.234290 1.843360
45
0.000000 0.000000 -1.000000 1.362160
-6.134000 34.920000 1.362160
-1.865000 35.730000 1.362160
-1.380486 33.716774 1.362160
0.488092 34.327100 1.362160
0.601536 34.197700 1.362160
1.254680 34.174000 1.362160
2.165190 34.469000 1.362160
2.830263 32.680992 1.362160
-0.935169 31.618974 1.362160
-0.759010 29.227300 1.362160
-0.456044 29.004100 1.362160
-0.429783 28.732200 1.362160
-0.156732 28.666600 1.362160
6.933716 4.688024 1.362160
10.775093 5.717586 1.362160
11.206122 3.861110 1.362160
7.813934 2.845796 1.362160
6.948890 2.734930 1.362160
6.220400 2.351930 1.362160
5.938129 2.223548 1.362160
2.718858 1.239291 1.362160
3.666481 -5.270626 1.362160
2.111880 -1.660080 1.362160
1.613890 -1.724200 1.362160
1.084820 -2.560250 1.362160
-2.590441 -3.235644 1.362160
-2.831730 -3.474570 1.362160
-3.458470 -3.586570 1.362160
-4.357530 -3.921160 1.362160
-4.638720 -3.922070 1.362160
-5.409480 -4.206660 1.362160
-5.909440 -4.327760 1.362160
-6.821430 -4.616720 1.362160
-7.129160 -4.816170 1.362160
-7.772230 -5.029110 1.362160
-7.372091 -10.370000 1.362160
-8.933471 -3.592099 1.362160
-2.240821 -1.541922 1.362160
-3.359322 1.579552 1.362160
4.010192 3.611090 1.362160
-3.052577 27.884900 1.362160
-2.780600 28.198900 1.362160
-3.303790 28.562000 1.362160
-3.445550 28.725200 1.362160
-4.683826 33.118773 1.362160
75
0.000000 0.000000 -1.000000 2.509780
45.367700 3.799960 2.509780
45.105100 4.499800 2.509780
45.608823 4.659940 2.509780
44.515184 8.238700 2.509780
43.396100 7.656400 2.509780
42.842000 7.354440 2.509780
42.232500 7.292070 2.509780
40.440700 6.727710 2.509780
39.897000 6.608260 2.509780
39.350900 6.390740 2.509780
39.165700 6.370730 2.509780
38.791100 6.214530 2.509780
38.330900 6.199540 2.509780
37.289700 5.839650 2.509780
36.898700 5.641140 2.509780
35.826600 5.284780 2.509780
35.580700 5.281160 2.509780
34.848200 5.043610 2.509780
34.613300 4.919450 2.509780
33.428400 4.713520 2.509780
32.098800 4.296970 2.509780
31.500700 4.198430 2.509780
30.627600 3.870050 2.509780
30.064900 3.766400 2.509780
29.944500 3.678260 2.509780
29.060200 3.471090 2.509780
28.542200 3.245060 2.509780
27.846600 3.046760 2.509780
27.730200 2.968030 2.509780
27.096900 2.901950 2.509780
26.175400 2.547760 2.509780
25.807800 2.464840 2.509780
25.664600 2.469500 2.509780
25.278900 2.268310 2.509780
24.890500 2.169320 2.509780
24.745900 2.071000 2.509780
24.071600 1.956500 2.509780
23.594500 1.776150 2.509780
23.177800 1.716300 2.509780
22.634600 1.523390 2.509780
22.352400 1.460450 2.509780
22.020800 1.305760 2.509780
20.962500 1.080350 2.509780
19.315900 0.537474 2.509780
18.838400 0.402334 2.509780
18.613100 0.262329 2.509780
17.762500 0.030001 2.509780
16.640600 -0.267180 2.509780
16.376000 -0.249770 2.509780
15.723600 -0.478983 2.509780
15.195200 -0.707253 2.509780
13.916000 -1.043240 2.509780
12.858100 -1.378970 2.509780
12.305500 -1.664520 2.509780
11.170196 -1.504448 2.509780
4.040950 -3.822160 2.509780
3.874760 -4.068580 2.509780
3.691180 -4.443690 2.509780
3.038730 -5.496730 2.509780
1.341857 -5.939622 2.509780
2.150361 -8.786763 2.509780
3.154060 -8.793560 2.509780
3.758820 -9.426380 2.509780
4.072560 -10.047700 2.509780
4.272840 -10.626300 2.509780
4.776640 -11.039800 2.509780
5.279480 -10.978200 2.509780
5.670080 -10.736200 2.509780
5.497970 -10.228500 2.509780
5.865470 -8.868410 2.509780
6.048150 -8.824910 2.509780
6.303830 -8.659380 2.509780
6.344530 -8.425680 2.509780
6.426106 -7.490920 2.509780
42.643000 3.043930 2.509780
33
0.000000 0.000000 -1.000000 2.593280
-14.201700 38.653100 2.593280
-14.404800 39.993000 2.593280
-15.170400 39.792400 2.593280
-15.380400 39.810800 2.593280
-15.464300 39.669700 2.593280
-16.804200 39.506800 2.593280
-17.499300 39.511200 2.593280
-17.500800 39.313500 2.593280
-18.027400 38.240400 2.593280
-17.898900 37.640600 2.593280
-19.009900 36.806600 2.593280
-19.572000 36.731500 2.593280
-20.037600 36.413200 2.593280
-20.112100 36.200700 2.593280
-20.061200 35.973000 2.593280
-20.618437 35.714200 2.593280
-17.124630 22.351700 2.593280
-15.953700 22.208300 2.593280
-15.493800 22.323400 2.593280
-14.881600 22.232800 2.593280
-13.840100 22.225300 2.593280
-10.643100 23.174100 2.593280
-11.117400 24.222700 2.593280
-11.058200 24.518000 2.593280
-10.919900 25.047300 2.593280
-12.305892 30.738306 2.593280
-12.380200 31.023700 2.593280
-12.437900 31.275600 2.593280
-12.677100 31.724800 2.593280
-12.804800 32.279500 2.593280
-13.013600 32.864100 2.593280
-12.847088 32.960461 2.593280
-14.492900 39.718200 2.593280
12
0.000000 0.000000 -1.000000 2.273710
17.943761 2.982990 2.273710
15.958807 9.858488 2.273710
16.408400 9.980970 2.273710
16.745700 10.109500 2.273710
17.081200 10.112300 2.273710
17.897200 10.325000 2.273710
18.270800 10.608800 2.273710
18.482500 10.933300 2.273710
25.539489 13.070894 2.273710
27.720516 5.795290 2.273710
15.904100 1.737141 2.273710
15.958807 9.858488 2.273710
37
0.000000 0.000000 -1.000000 2.590110
52.581500 18.053800 2.590110
52.553347 18.009901 2.590110
48.274000 16.684240 2.590110
48.842600 15.399400 2.590110
49.048100 13.987800 2.590110
49.718700 13.556900 2.590110
50.016000 13.515500 2.590110
46.758668 13.358494 2.590110
51.174400 12.691800 2.590110
51.228400 11.778600 2.590110
51.230000 10.959900 2.590110
51.007700 10.573900 2.590110
50.405000 9.965230 2.590110
50.169200 9.653350 2.590110
49.349900 9.208980 2.590110
48.315400 8.798280 2.590110
48.018900 8.739140 2.590110
47.492300 8.771280 2.590110
47.080800 8.710330 2.590110
46.810100 8.321370 2.590110
46.330600 8.077460 2.590110
44.515184 8.238700 2.590110
45.608823 4.659940 2.590110
45.838700 4.267900 2.590110
50.599600 5.597240 2.590110
50.945100 5.737170 2.590110
51.133400 5.186530 2.590110
54.499300 6.312620 2.590110
54.625000 6.736860 2.590110
54.955400 7.069640 2.590110
55.259500 7.276470 2.590110
55.458700 7.398890 2.590110
53.869000 12.531700 2.590110
53.785400 12.666700 2.590110
53.653000 12.746400 2.590110
53.525300 12.986400 2.590110
52.553347 18.009901 2.590110
2
0.000000 0.000000 -1.000000 2.264040
-7.372091 -10.370000 2.264040
-8.933471 -3.592099 2.264040
25
0.000000 0.000000 -1.000000 1.333340
48.277400 15.206500 1.333340
48.121300 14.893000 1.333340
47.572800 14.668300 1.333340
47.064700 14.396600 1.333340
46.319700 14.185000 1.333340
38.374400 13.841600 1.333340
46.221855 16.083160 1.333340
41.103388 33.776182 1.333340
32.821200 31.441640 1.333340
29.930000 30.960000 1.333340
28.998500 35.916400 1.333340
29.399200 36.823400 1.333340
28.920200 37.801900 1.333340
29.569300 37.716600 1.333340
30.103100 36.959200 1.333340
30.879000 36.070500 1.333340
31.492200 35.732100 1.333340
32.485394 35.835400 1.333340
32.906866 32.998071 1.333340
40.291400 34.692400 1.333340
40.630900 34.670900 1.333340
40.847300 34.883200 1.333340
40.856900 35.183100 1.333340
42.480000 35.630000 1.333340
48.291300 15.421200 1.333340
2
0.000000 0.000000 -1.000000 2.389120
10.770467 8.705804 2.389120
15.958807 9.858488 2.389120
4
0.000000 0.000000 -1.000000 1.464600
33.370572 10.630439 1.464600
30.601352 6.652260 1.464600
29.606505 9.444920 1.464600
34.317594 7.309942 1.464600
