5
167
0.000000 0.000000 1.000000 1.374570
54.499300 6.312620 -1.374570
51.133400 5.186530 -1.374570
51.122400 5.659650 -1.374570
50.640800 5.684230 -1.374570
50.599600 5.597240 -1.374570
45.838700 4.267900 -1.374570
45.645400 4.536110 -1.374570
44.261600 4.074890 -1.374570
43.509500 3.731460 -1.374570
42.754900 3.736990 -1.374570
42.643000 3.043930 -1.374570
6.453092 -7.601719 -1.374570
2.150361 -8.786763 -1.374570
1.341857 -5.939622 -1.374570
3.666481 -5.270626 -1.374570
2.718858 1.239291 -1.374570
2.103480 -2.071050 -1.374570
1.580450 -2.177800 -1.374570
1.084820 -2.560250 -1.374570
-2.590441 -3.235644 -1.374570
-0.697296 -9.397170 -1.374570
-1.189000 -9.645820 -1.374570
-1.460490 -9.792400 -1.374570
-1.921070 -10.174900 -1.374570
-2.229840 -10.192900 -1.374570
-2.777660 -9.983600 -1.374570
-3.475030 -9.877720 -1.374570
-3.975080 -10.015000 -1.374570
-4.248150 -10.231000 -1.374570
-4.620380 -10.376300 -1.374570
-5.231050 -10.477000 -1.374570
-6.045540 -10.723100 -1.374570
-6.331090 -10.472400 -1.374570
-6.655610 -9.857580 -1.374570
-7.372090 -10.370000 -1.374570
-8.933471 -3.592099 -1.374570
-2.240821 -1.541922 -1.374570
-3.359323 1.579552 -1.374570
4.010192 3.611090 -1.374570
-3.052580 27.884900 -1.374570
-2.901620 28.480300 -1.374570
-3.350620 28.723100 -1.374570
-3.445550 28.725200 -1.374570
-4.683826 33.118773 -1.374570
-12.305892 30.738306 -1.374570
-10.919900 25.047300 -1.374570
-12.168500 25.751200 -1.374570
-12.154300 25.684300 -1.374570
-12.775100 25.105600 -1.374570
-12.853300 24.779600 -1.374570
-12.845800 24.508600 -1.374570
-12.608200 23.847200 -1.374570
-13.140600 23.168800 -1.374570
-13.806800 23.439600 -1.374570
-13.872400 23.531900 -1.374570
-14.013700 24.343500 -1.374570
-15.332200 24.794600 -1.374570
-16.075100 24.561300 -1.374570
-16.345000 24.378100 -1.374570
-16.710500 24.304300 -1.374570
-17.124700 22.351700 -1.374570
-20.618500 35.714200 -1.374570
-17.788700 29.566600 -1.374570
-16.903100 29.505800 -1.374570
-16.332300 29.571400 -1.374570
-15.548900 29.966700 -1.374570
-17.124400 35.420700 -1.374570
-18.001500 35.679200 -1.374570
-18.379500 35.480900 -1.374570
-18.671900 35.229600 -1.374570
-19.672400 35.895000 -1.374570
-19.604700 36.014300 -1.374570
-18.771200 36.427000 -1.374570
-18.468300 36.433300 -1.374570
-18.242300 36.494200 -1.374570
-17.668400 37.315200 -1.374570
-17.655400 37.769400 -1.374570
-17.533600 37.829500 -1.374570
-16.769000 37.976100 -1.374570
-16.730400 37.521200 -1.374570
-16.570000 36.928900 -1.374570
-15.820700 36.226900 -1.374570
-15.571600 36.230700 -1.374570
-14.767300 36.599600 -1.374570
-14.492900 39.718200 -1.374570
-12.847088 32.960461 -1.374570
-6.134030 34.923600 -1.374570
-5.919060 34.787600 -1.374570
-5.281660 35.783000 -1.374570
-5.385750 36.198800 -1.374570
-4.686730 36.710300 -1.374570
-4.376920 37.292600 -1.374570
-4.341980 38.127800 -1.374570
-3.764070 38.033200 -1.374570
-3.406850 38.039100 -1.374570
-3.386990 37.569200 -1.374570
-2.226870 36.857200 -1.374570
-2.188090 36.305200 -1.374570
-1.865400 35.731000 -1.374570
-1.380486 33.716774 -1.374570
0.488092 34.327100 -1.374570
0.569187 34.125100 -1.374570
1.085400 34.259600 -1.374570
1.374760 34.254400 -1.374570
2.165190 34.469000 -1.374570
2.830263 32.680992 -1.374570
-0.935169 31.618974 -1.374570
-0.759010 29.227300 -1.374570
-0.269386 28.906500 -1.374570
-0.156728 28.666600 -1.374570
6.933716 4.688024 -1.374570
12.867247 0.975511 -1.374570
10.770467 8.705804 -1.374570
15.958807 9.858488 -1.374570
16.434100 9.708500 -1.374570
16.663300 9.946470 -1.374570
17.148600 10.093400 -1.374570
17.895500 10.601900 -1.374570
18.482500 10.933300 -1.374570
25.539489 13.070894 -1.374570
29.637450 14.100815 -1.374570
29.889587 10.975609 -1.374570
31.612400 11.443200 -1.374570
31.891700 11.950100 -1.374570
35.218568 12.961000 -1.374570
32.956100 20.850400 -1.374570
33.183000 20.850700 -1.374570
33.037200 21.054200 -1.374570
32.425600 21.403500 -1.374570
32.253600 21.401100 -1.374570
31.816800 21.551000 -1.374570
31.170700 24.200200 -1.374570
31.891000 24.751400 -1.374570
31.768300 25.066100 -1.374570
30.302900 30.355100 -1.374570
30.210200 30.919800 -1.374570
29.933300 30.955700 -1.374570
28.998500 35.916400 -1.374570
29.311500 36.007500 -1.374570
28.914700 36.799400 -1.374570
27.937600 37.370200 -1.374570
28.331100 37.723900 -1.374570
28.925200 37.887300 -1.374570
29.490100 37.960500 -1.374570
30.131900 37.027000 -1.374570
30.599900 36.724800 -1.374570
31.031400 36.288000 -1.374570
31.820800 35.869900 -1.374570
32.485400 35.835400 -1.374570
32.906865 32.998071 -1.374570
40.291400 34.692400 -1.374570
40.547800 34.828000 -1.374570
40.727000 35.069100 -1.374570
40.856900 35.183100 -1.374570
42.480000 35.630000 -1.374570
48.878500 13.468000 -1.374570
46.221855 16.083160 -1.374570
41.103388 33.776182 -1.374570
42.477369 35.627031 -1.374570
52.553347 18.009901 -1.374570
53.525300 12.986400 -1.374570
53.869000 12.531700 -1.374570
55.458700 7.398890 -1.374570
55.300900 7.283910 -1.374570
54.939600 6.939020 -1.374570
54.581100 6.428770 -1.374570
54.226700 6.189450 -1.374570
9
0.000000 0.000000 1.000000 -1.569360
33.570000 29.910000 1.569360
38.370000 13.840000 1.569360
35.218568 12.961000 1.569360
32.960000 20.850000 1.569360
31.820000 21.550000 1.569360
31.170000 24.200000 1.569360
31.770000 25.070000 1.569360
29.930000 30.960000 1.569360
32.820000 31.440000 1.569360
4
0.000000 0.000000 1.000000 -1.553820
-4.683826 33.118773 1.553820
-6.134030 34.923600 1.553820
-12.847088 32.960461 1.553820
-12.305892 30.738306 1.553820
4
0.000000 0.000000 1.000000 -2.320310
10.770467 8.705804 2.320310
8.038751 1.866978 2.320310
8.555754 -0.383977 2.320310
12.867247 0.975511 2.320310
2
0.000000 0.000000 1.000000 -1.543220
32.956100 20.850400 1.543220
35.218568 12.961000 1.543220
