2
4
-0.2897 0.9571 0 2.9443
34.3176 7.3099 1.8434
34.3176 7.3099 -1.3746
15.9041 1.7372 -1.3746
15.9041 1.7371 1.8434
4
0.9579 0.2871 0 -28.2172
25.5395 13.0709 -1.3746
25.5395 13.0709 2.2737
27.7205 5.7953 2.2737
27.7205 5.7953 -1.3746