2
4
1 0 0 0
0 0 0
0 0 10
0 10 10
0 10 0
10
0 1 0 0
1 0 0
1.5 0 1
1 0 2
2 0 4
2 0 8
1.5 0 12
1 0 13
1 0 20
10 0 10
10 0 0