3
4
0.0 1.0 0.0 0.0
0.0 0.0 0.0 
0.0 0.0 10.0
10.0 0.0 10.0
10.0 0.0 0.0
4
1.0 0.0 0.0 0.0
0.0 0.8 0.0
0.0 0.8 10.0
0.0 10.0 10.0
0.0 10.0 0.0
4
0.1 1.0 0.0 -11.0
0.0 11.0 0.0
0.0 11.0 10.0
10.0 10.0 10.0
10.0 10.0 0.0