5
4
0.0 1.0 0.0 0.0
0.0 0.0 0.0
0.0 0.0 20.0
5.0 0.0 20.0
5.0 0.0 0.0
4
1.0 0.0 0.0 0.0
0.0 1.0 0.0
0.0 1.0 20.0
0.0 5.0 20.0
0.0 5.0 0.0
4
0.0 -1.0 0.0 5.0
1.0 5.0 0.0
1.0 5.0 20.0
4.5 5.0 20.0
4.5 5.0 0.0
4
-1.0 0.0 0.0 3.0
3.0 1.0 0.0
3.0 1.0 20.0
3.0 4.0 20.0
3.0 4.0 0.0
4
-1.0 0.0 0.0 5.2
5.2 -1.0 0.0
5.2 -1.0 25.0
5.2 6.0 25.0
5.2 6.0 0.0